v 0 eval {set sim_annotation {MOBILE NODE MOVEMENTS}}
s 0.000000000 _0_ RTR  --- 0 AODV 44 [0 0 0 0] ------- [0:255 -1:255 1 0] [0x1 1 [0 2] 4.000000] (HELLO)
s 0.000000000 _1_ RTR  --- 0 AODV 44 [0 0 0 0] ------- [1:255 -1:255 1 0] [0x1 1 [1 2] 4.000000] (HELLO)
s 0.000000000 _2_ RTR  --- 0 AODV 44 [0 0 0 0] ------- [2:255 -1:255 1 0] [0x1 1 [2 2] 4.000000] (HELLO)
s 0.000000000 _3_ RTR  --- 0 AODV 44 [0 0 0 0] ------- [3:255 -1:255 1 0] [0x1 1 [3 2] 4.000000] (HELLO)
s 0.000000000 _4_ RTR  --- 0 AODV 44 [0 0 0 0] ------- [4:255 -1:255 1 0] [0x1 1 [4 2] 4.000000] (HELLO)
s 0.000000000 _5_ RTR  --- 0 AODV 44 [0 0 0 0] ------- [5:255 -1:255 1 0] [0x1 1 [5 2] 4.000000] (HELLO)
s 0.000000000 _6_ RTR  --- 0 AODV 44 [0 0 0 0] ------- [6:255 -1:255 1 0] [0x1 1 [6 2] 4.000000] (HELLO)
s 0.000000000 _7_ RTR  --- 0 AODV 44 [0 0 0 0] ------- [7:255 -1:255 1 0] [0x1 1 [7 2] 4.000000] (HELLO)
s 0.000000000 _8_ RTR  --- 0 AODV 44 [0 0 0 0] ------- [8:255 -1:255 1 0] [0x1 1 [8 2] 4.000000] (HELLO)
s 0.000000000 _9_ RTR  --- 0 AODV 44 [0 0 0 0] ------- [9:255 -1:255 1 0] [0x1 1 [9 2] 4.000000] (HELLO)
s 0.000000000 _10_ RTR  --- 0 AODV 44 [0 0 0 0] ------- [10:255 -1:255 1 0] [0x1 1 [10 2] 4.000000] (HELLO)
s 0.000000000 _11_ RTR  --- 0 AODV 44 [0 0 0 0] ------- [11:255 -1:255 1 0] [0x1 1 [11 2] 4.000000] (HELLO)
s 0.000000000 _12_ RTR  --- 0 AODV 44 [0 0 0 0] ------- [12:255 -1:255 1 0] [0x1 1 [12 2] 4.000000] (HELLO)
s 0.000000000 _13_ RTR  --- 0 AODV 44 [0 0 0 0] ------- [13:255 -1:255 1 0] [0x1 1 [13 2] 4.000000] (HELLO)
s 0.000000000 _14_ RTR  --- 0 AODV 44 [0 0 0 0] ------- [14:255 -1:255 1 0] [0x1 1 [14 2] 4.000000] (HELLO)
s 0.000000000 _15_ RTR  --- 0 AODV 44 [0 0 0 0] ------- [15:255 -1:255 1 0] [0x1 1 [15 2] 4.000000] (HELLO)
s 0.000000000 _16_ RTR  --- 0 AODV 44 [0 0 0 0] ------- [16:255 -1:255 1 0] [0x1 1 [16 2] 4.000000] (HELLO)
s 0.000000000 _17_ RTR  --- 0 AODV 44 [0 0 0 0] ------- [17:255 -1:255 1 0] [0x1 1 [17 2] 4.000000] (HELLO)
s 0.000000000 _18_ RTR  --- 0 AODV 44 [0 0 0 0] ------- [18:255 -1:255 1 0] [0x1 1 [18 2] 4.000000] (HELLO)
s 0.000000000 _19_ RTR  --- 0 AODV 44 [0 0 0 0] ------- [19:255 -1:255 1 0] [0x1 1 [19 2] 4.000000] (HELLO)
s 0.000000000 _20_ RTR  --- 0 AODV 44 [0 0 0 0] ------- [20:255 -1:255 1 0] [0x1 1 [20 2] 4.000000] (HELLO)
s 0.000075000 _3_ MAC  --- 0 AODV 102 [0 ffffffff 3 800] ------- [3:255 -1:255 1 0] [0x1 1 [3 2] 4.000000] (HELLO)
s 0.000095000 _1_ MAC  --- 0 AODV 102 [0 ffffffff 1 800] ------- [1:255 -1:255 1 0] [0x1 1 [1 2] 4.000000] (HELLO)
s 0.000095000 _19_ MAC  --- 0 AODV 102 [0 ffffffff 13 800] ------- [19:255 -1:255 1 0] [0x1 1 [19 2] 4.000000] (HELLO)
s 0.000135000 _20_ MAC  --- 0 AODV 102 [0 ffffffff 14 800] ------- [20:255 -1:255 1 0] [0x1 1 [20 2] 4.000000] (HELLO)
s 0.000175000 _16_ MAC  --- 0 AODV 102 [0 ffffffff 10 800] ------- [16:255 -1:255 1 0] [0x1 1 [16 2] 4.000000] (HELLO)
s 0.000235000 _18_ MAC  --- 0 AODV 102 [0 ffffffff 12 800] ------- [18:255 -1:255 1 0] [0x1 1 [18 2] 4.000000] (HELLO)
s 0.000295000 _12_ MAC  --- 0 AODV 102 [0 ffffffff c 800] ------- [12:255 -1:255 1 0] [0x1 1 [12 2] 4.000000] (HELLO)
s 0.000415000 _0_ MAC  --- 0 AODV 102 [0 ffffffff 0 800] ------- [0:255 -1:255 1 0] [0x1 1 [0 2] 4.000000] (HELLO)
s 0.000435000 _2_ MAC  --- 0 AODV 102 [0 ffffffff 2 800] ------- [2:255 -1:255 1 0] [0x1 1 [2 2] 4.000000] (HELLO)
s 0.000435000 _9_ MAC  --- 0 AODV 102 [0 ffffffff 9 800] ------- [9:255 -1:255 1 0] [0x1 1 [9 2] 4.000000] (HELLO)
s 0.000515000 _6_ MAC  --- 0 AODV 102 [0 ffffffff 6 800] ------- [6:255 -1:255 1 0] [0x1 1 [6 2] 4.000000] (HELLO)
s 0.000515000 _10_ MAC  --- 0 AODV 102 [0 ffffffff a 800] ------- [10:255 -1:255 1 0] [0x1 1 [10 2] 4.000000] (HELLO)
s 0.000535000 _5_ MAC  --- 0 AODV 102 [0 ffffffff 5 800] ------- [5:255 -1:255 1 0] [0x1 1 [5 2] 4.000000] (HELLO)
s 0.000535000 _14_ MAC  --- 0 AODV 102 [0 ffffffff e 800] ------- [14:255 -1:255 1 0] [0x1 1 [14 2] 4.000000] (HELLO)
s 0.000555000 _13_ MAC  --- 0 AODV 102 [0 ffffffff d 800] ------- [13:255 -1:255 1 0] [0x1 1 [13 2] 4.000000] (HELLO)
s 0.000595000 _8_ MAC  --- 0 AODV 102 [0 ffffffff 8 800] ------- [8:255 -1:255 1 0] [0x1 1 [8 2] 4.000000] (HELLO)
s 0.000615000 _17_ MAC  --- 0 AODV 102 [0 ffffffff 11 800] ------- [17:255 -1:255 1 0] [0x1 1 [17 2] 4.000000] (HELLO)
s 0.000655000 _11_ MAC  --- 0 AODV 102 [0 ffffffff b 800] ------- [11:255 -1:255 1 0] [0x1 1 [11 2] 4.000000] (HELLO)
s 0.000675000 _4_ MAC  --- 0 AODV 102 [0 ffffffff 4 800] ------- [4:255 -1:255 1 0] [0x1 1 [4 2] 4.000000] (HELLO)
r 0.000679294 _15_ MAC  --- 0 AODV 44 [0 ffffffff 10 800] ------- [16:255 -1:255 1 0] [0x1 1 [16 2] 4.000000] (HELLO)
r 0.000704294 _15_ RTR  --- 0 AODV 44 [0 ffffffff 10 800] ------- [16:255 -1:255 1 0] [0x1 1 [16 2] 4.000000] (HELLO)
s 0.000789294 _15_ MAC  --- 0 AODV 102 [0 ffffffff f 800] ------- [15:255 -1:255 1 0] [0x1 1 [15 2] 4.000000] (HELLO)
s 0.001293340 _7_ MAC  --- 0 AODV 102 [0 ffffffff 7 800] ------- [7:255 -1:255 1 0] [0x1 1 [7 2] 4.000000] (HELLO)
r 0.001293589 _16_ MAC  --- 0 AODV 44 [0 ffffffff f 800] ------- [15:255 -1:255 1 0] [0x1 1 [15 2] 4.000000] (HELLO)
r 0.001318589 _16_ RTR  --- 0 AODV 44 [0 ffffffff f 800] ------- [15:255 -1:255 1 0] [0x1 1 [15 2] 4.000000] (HELLO)
M 0.20000 2 (201.00, 552.00, 0.00), (309.00, 211.00), 20.00
M 0.20000 18 (741.00, 152.00, 0.00), (159.00, 722.00), 20.00
M 0.25000 11 (569.00, 167.00, 0.00), (551.00, 624.00), 25.00
M 0.50000 10 (519.00, 361.00, 0.00), (598.00, 728.00), 25.00
M 0.75000 0 (36.00, 529.00, 0.00), (379.00, 349.00), 20.00
M 0.75000 1 (143.00, 666.00, 0.00), (556.00, 302.00), 20.00
M 0.75000 4 (230.00, 291.00, 0.00), (139.00, 63.00), 20.00
M 0.75000 5 (295.00, 419.00, 0.00), (320.00, 27.00), 20.00
M 0.75000 16 (630.00, 626.00, 0.00), (741.00, 809.00), 20.00
M 0.75000 17 (666.00, 347.00, 0.00), (437.00, 799.00), 20.00
M 0.75000 20 (761.00, 441.00, 0.00), (839.00, 444.00), 20.00
s 0.791245719 _1_ RTR  --- 0 AODV 44 [0 0 0 0] ------- [1:255 -1:255 1 0] [0x1 1 [1 2] 4.000000] (HELLO)
s 0.791900719 _1_ MAC  --- 0 AODV 102 [0 ffffffff 1 800] ------- [1:255 -1:255 1 0] [0x1 1 [1 2] 4.000000] (HELLO)
s 0.809123005 _3_ RTR  --- 0 AODV 44 [0 0 0 0] ------- [3:255 -1:255 1 0] [0x1 1 [3 2] 4.000000] (HELLO)
s 0.809298005 _3_ MAC  --- 0 AODV 102 [0 ffffffff 3 800] ------- [3:255 -1:255 1 0] [0x1 1 [3 2] 4.000000] (HELLO)
s 0.865051848 _13_ RTR  --- 0 AODV 44 [0 0 0 0] ------- [13:255 -1:255 1 0] [0x1 1 [13 2] 4.000000] (HELLO)
s 0.865326848 _13_ MAC  --- 0 AODV 102 [0 ffffffff d 800] ------- [13:255 -1:255 1 0] [0x1 1 [13 2] 4.000000] (HELLO)
s 0.865699516 _6_ RTR  --- 0 AODV 44 [0 0 0 0] ------- [6:255 -1:255 1 0] [0x1 1 [6 2] 4.000000] (HELLO)
s 0.866274516 _6_ MAC  --- 0 AODV 102 [0 ffffffff 6 800] ------- [6:255 -1:255 1 0] [0x1 1 [6 2] 4.000000] (HELLO)
s 0.871039409 _4_ RTR  --- 0 AODV 44 [0 0 0 0] ------- [4:255 -1:255 1 0] [0x1 1 [4 2] 4.000000] (HELLO)
s 0.871574409 _4_ MAC  --- 0 AODV 102 [0 ffffffff 4 800] ------- [4:255 -1:255 1 0] [0x1 1 [4 2] 4.000000] (HELLO)
s 0.872961926 _5_ RTR  --- 0 AODV 44 [0 0 0 0] ------- [5:255 -1:255 1 0] [0x1 1 [5 2] 4.000000] (HELLO)
s 0.873096926 _5_ MAC  --- 0 AODV 102 [0 ffffffff 5 800] ------- [5:255 -1:255 1 0] [0x1 1 [5 2] 4.000000] (HELLO)
s 0.898325206 _2_ RTR  --- 0 AODV 44 [0 0 0 0] ------- [2:255 -1:255 1 0] [0x1 1 [2 2] 4.000000] (HELLO)
s 0.898560206 _2_ MAC  --- 0 AODV 102 [0 ffffffff 2 800] ------- [2:255 -1:255 1 0] [0x1 1 [2 2] 4.000000] (HELLO)
s 0.907636673 _7_ RTR  --- 0 AODV 44 [0 0 0 0] ------- [7:255 -1:255 1 0] [0x1 1 [7 2] 4.000000] (HELLO)
s 0.907851673 _7_ MAC  --- 0 AODV 102 [0 ffffffff 7 800] ------- [7:255 -1:255 1 0] [0x1 1 [7 2] 4.000000] (HELLO)
s 0.935388859 _0_ RTR  --- 0 AODV 44 [0 0 0 0] ------- [0:255 -1:255 1 0] [0x1 1 [0 2] 4.000000] (HELLO)
s 0.935583859 _0_ MAC  --- 0 AODV 102 [0 ffffffff 0 800] ------- [0:255 -1:255 1 0] [0x1 1 [0 2] 4.000000] (HELLO)
s 0.970173018 _17_ RTR  --- 0 AODV 44 [0 0 0 0] ------- [17:255 -1:255 1 0] [0x1 1 [17 2] 4.000000] (HELLO)
s 0.970568018 _17_ MAC  --- 0 AODV 102 [0 ffffffff 11 800] ------- [17:255 -1:255 1 0] [0x1 1 [17 2] 4.000000] (HELLO)
s 1.030013351 _19_ RTR  --- 0 AODV 44 [0 0 0 0] ------- [19:255 -1:255 1 0] [0x1 1 [19 2] 4.000000] (HELLO)
s 1.030288351 _19_ MAC  --- 0 AODV 102 [0 ffffffff 13 800] ------- [19:255 -1:255 1 0] [0x1 1 [19 2] 4.000000] (HELLO)
s 1.038652377 _16_ RTR  --- 0 AODV 44 [0 0 0 0] ------- [16:255 -1:255 1 0] [0x1 1 [16 4] 4.000000] (HELLO)
s 1.038927377 _16_ MAC  --- 0 AODV 102 [0 ffffffff 10 800] ------- [16:255 -1:255 1 0] [0x1 1 [16 4] 4.000000] (HELLO)
r 1.039431659 _15_ MAC  --- 0 AODV 44 [0 ffffffff 10 800] ------- [16:255 -1:255 1 0] [0x1 1 [16 4] 4.000000] (HELLO)
r 1.039456659 _15_ RTR  --- 0 AODV 44 [0 ffffffff 10 800] ------- [16:255 -1:255 1 0] [0x1 1 [16 4] 4.000000] (HELLO)
s 1.080546313 _14_ RTR  --- 0 AODV 44 [0 0 0 0] ------- [14:255 -1:255 1 0] [0x1 1 [14 2] 4.000000] (HELLO)
s 1.081141313 _14_ MAC  --- 0 AODV 102 [0 ffffffff e 800] ------- [14:255 -1:255 1 0] [0x1 1 [14 2] 4.000000] (HELLO)
s 1.086196246 _15_ RTR  --- 0 AODV 44 [0 0 0 0] ------- [15:255 -1:255 1 0] [0x1 1 [15 4] 4.000000] (HELLO)
s 1.086391246 _15_ MAC  --- 0 AODV 102 [0 ffffffff f 800] ------- [15:255 -1:255 1 0] [0x1 1 [15 4] 4.000000] (HELLO)
r 1.086895526 _16_ MAC  --- 0 AODV 44 [0 ffffffff f 800] ------- [15:255 -1:255 1 0] [0x1 1 [15 4] 4.000000] (HELLO)
r 1.086920526 _16_ RTR  --- 0 AODV 44 [0 ffffffff f 800] ------- [15:255 -1:255 1 0] [0x1 1 [15 4] 4.000000] (HELLO)
s 1.117160788 _8_ RTR  --- 0 AODV 44 [0 0 0 0] ------- [8:255 -1:255 1 0] [0x1 1 [8 2] 4.000000] (HELLO)
s 1.117295788 _8_ MAC  --- 0 AODV 102 [0 ffffffff 8 800] ------- [8:255 -1:255 1 0] [0x1 1 [8 2] 4.000000] (HELLO)
s 1.118134991 _9_ RTR  --- 0 AODV 44 [0 0 0 0] ------- [9:255 -1:255 1 0] [0x1 1 [9 2] 4.000000] (HELLO)
s 1.118489991 _9_ MAC  --- 0 AODV 102 [0 ffffffff 9 800] ------- [9:255 -1:255 1 0] [0x1 1 [9 2] 4.000000] (HELLO)
s 1.120916071 _12_ RTR  --- 0 AODV 44 [0 0 0 0] ------- [12:255 -1:255 1 0] [0x1 1 [12 2] 4.000000] (HELLO)
s 1.121251071 _12_ MAC  --- 0 AODV 102 [0 ffffffff c 800] ------- [12:255 -1:255 1 0] [0x1 1 [12 2] 4.000000] (HELLO)
s 1.148129903 _18_ RTR  --- 0 AODV 44 [0 0 0 0] ------- [18:255 -1:255 1 0] [0x1 1 [18 2] 4.000000] (HELLO)
s 1.148804903 _18_ MAC  --- 0 AODV 102 [0 ffffffff 12 800] ------- [18:255 -1:255 1 0] [0x1 1 [18 2] 4.000000] (HELLO)
s 1.169033588 _11_ RTR  --- 0 AODV 44 [0 0 0 0] ------- [11:255 -1:255 1 0] [0x1 1 [11 2] 4.000000] (HELLO)
s 1.169648588 _11_ MAC  --- 0 AODV 102 [0 ffffffff b 800] ------- [11:255 -1:255 1 0] [0x1 1 [11 2] 4.000000] (HELLO)
s 1.177897355 _20_ RTR  --- 0 AODV 44 [0 0 0 0] ------- [20:255 -1:255 1 0] [0x1 1 [20 2] 4.000000] (HELLO)
s 1.178312355 _20_ MAC  --- 0 AODV 102 [0 ffffffff 14 800] ------- [20:255 -1:255 1 0] [0x1 1 [20 2] 4.000000] (HELLO)
s 1.200756783 _10_ RTR  --- 0 AODV 44 [0 0 0 0] ------- [10:255 -1:255 1 0] [0x1 1 [10 2] 4.000000] (HELLO)
s 1.201031783 _10_ MAC  --- 0 AODV 102 [0 ffffffff a 800] ------- [10:255 -1:255 1 0] [0x1 1 [10 2] 4.000000] (HELLO)
M 1.25000 3 (147.00, 403.00, 0.00), (179.00, 333.00), 20.00
M 1.25000 7 (334.00, 647.00, 0.00), (274.00, 487.00), 20.00
M 1.25000 8 (304.00, 777.00, 0.00), (494.00, 475.00), 20.00
M 1.25000 9 (412.00, 194.00, 0.00), (899.00, 757.00), 25.00
M 1.25000 12 (349.00, 546.00, 0.00), (397.00, 647.00), 25.00
M 1.25000 13 (466.00, 668.00, 0.00), (748.00, 688.00), 25.00
M 1.25000 14 (489.00, 794.00, 0.00), (842.00, 623.00), 25.00
M 1.25000 15 (606.00, 711.00, 0.00), (678.00, 548.00), 25.00
M 1.25000 19 (882.00, 264.00, 0.00), (700.00, 350.00), 20.00
M 1.50000 6 (363.00, 335.00, 0.00), (505.00, 124.00), 20.00
s 1.691928212 _6_ RTR  --- 0 AODV 44 [0 0 0 0] ------- [6:255 -1:255 1 0] [0x1 1 [6 2] 4.000000] (HELLO)
s 1.692303212 _6_ MAC  --- 0 AODV 102 [0 ffffffff 6 800] ------- [6:255 -1:255 1 0] [0x1 1 [6 2] 4.000000] (HELLO)
r 1.692807536 _5_ MAC  --- 0 AODV 44 [0 ffffffff 6 800] ------- [6:255 -1:255 1 0] [0x1 1 [6 2] 4.000000] (HELLO)
r 1.692832536 _5_ RTR  --- 0 AODV 44 [0 ffffffff 6 800] ------- [6:255 -1:255 1 0] [0x1 1 [6 2] 4.000000] (HELLO)
s 1.784848479 _19_ RTR  --- 0 AODV 44 [0 0 0 0] ------- [19:255 -1:255 1 0] [0x1 1 [19 2] 4.000000] (HELLO)
s 1.785083479 _19_ MAC  --- 0 AODV 102 [0 ffffffff 13 800] ------- [19:255 -1:255 1 0] [0x1 1 [19 2] 4.000000] (HELLO)
s 1.807385897 _3_ RTR  --- 0 AODV 44 [0 0 0 0] ------- [3:255 -1:255 1 0] [0x1 1 [3 2] 4.000000] (HELLO)
s 1.807500897 _3_ MAC  --- 0 AODV 102 [0 ffffffff 3 800] ------- [3:255 -1:255 1 0] [0x1 1 [3 2] 4.000000] (HELLO)
s 1.836419044 _15_ RTR  --- 0 AODV 44 [0 0 0 0] ------- [15:255 -1:255 1 0] [0x1 1 [15 4] 4.000000] (HELLO)
s 1.836514044 _15_ MAC  --- 0 AODV 102 [0 ffffffff f 800] ------- [15:255 -1:255 1 0] [0x1 1 [15 4] 4.000000] (HELLO)
r 1.837018246 _16_ MAC  --- 0 AODV 44 [0 ffffffff f 800] ------- [15:255 -1:255 1 0] [0x1 1 [15 4] 4.000000] (HELLO)
r 1.837043246 _16_ RTR  --- 0 AODV 44 [0 ffffffff f 800] ------- [15:255 -1:255 1 0] [0x1 1 [15 4] 4.000000] (HELLO)
s 1.862913130 _1_ RTR  --- 0 AODV 44 [0 0 0 0] ------- [1:255 -1:255 1 0] [0x1 1 [1 2] 4.000000] (HELLO)
s 1.863348130 _1_ MAC  --- 0 AODV 102 [0 ffffffff 1 800] ------- [1:255 -1:255 1 0] [0x1 1 [1 2] 4.000000] (HELLO)
s 1.867869129 _8_ RTR  --- 0 AODV 44 [0 0 0 0] ------- [8:255 -1:255 1 0] [0x1 1 [8 2] 4.000000] (HELLO)
s 1.868084129 _8_ MAC  --- 0 AODV 102 [0 ffffffff 8 800] ------- [8:255 -1:255 1 0] [0x1 1 [8 2] 4.000000] (HELLO)
s 1.879092417 _2_ RTR  --- 0 AODV 44 [0 0 0 0] ------- [2:255 -1:255 1 0] [0x1 1 [2 2] 4.000000] (HELLO)
s 1.879527417 _2_ MAC  --- 0 AODV 102 [0 ffffffff 2 800] ------- [2:255 -1:255 1 0] [0x1 1 [2 2] 4.000000] (HELLO)
s 1.888182313 _16_ RTR  --- 0 AODV 44 [0 0 0 0] ------- [16:255 -1:255 1 0] [0x1 1 [16 4] 4.000000] (HELLO)
s 1.888837313 _16_ MAC  --- 0 AODV 102 [0 ffffffff 10 800] ------- [16:255 -1:255 1 0] [0x1 1 [16 4] 4.000000] (HELLO)
r 1.889341509 _15_ MAC  --- 0 AODV 44 [0 ffffffff 10 800] ------- [16:255 -1:255 1 0] [0x1 1 [16 4] 4.000000] (HELLO)
r 1.889366509 _15_ RTR  --- 0 AODV 44 [0 ffffffff 10 800] ------- [16:255 -1:255 1 0] [0x1 1 [16 4] 4.000000] (HELLO)
s 1.894900181 _14_ RTR  --- 0 AODV 44 [0 0 0 0] ------- [14:255 -1:255 1 0] [0x1 1 [14 2] 4.000000] (HELLO)
s 1.895195181 _14_ MAC  --- 0 AODV 102 [0 ffffffff e 800] ------- [14:255 -1:255 1 0] [0x1 1 [14 2] 4.000000] (HELLO)
s 1.933015684 _13_ RTR  --- 0 AODV 44 [0 0 0 0] ------- [13:255 -1:255 1 0] [0x1 1 [13 2] 4.000000] (HELLO)
s 1.933450684 _13_ MAC  --- 0 AODV 102 [0 ffffffff d 800] ------- [13:255 -1:255 1 0] [0x1 1 [13 2] 4.000000] (HELLO)
s 1.934050472 _5_ RTR  --- 0 AODV 44 [0 0 0 0] ------- [5:255 -1:255 1 0] [0x1 1 [5 4] 4.000000] (HELLO)
s 1.934245472 _5_ MAC  --- 0 AODV 102 [0 ffffffff 5 800] ------- [5:255 -1:255 1 0] [0x1 1 [5 4] 4.000000] (HELLO)
r 1.934749800 _6_ MAC  --- 0 AODV 44 [0 ffffffff 5 800] ------- [5:255 -1:255 1 0] [0x1 1 [5 4] 4.000000] (HELLO)
r 1.934774800 _6_ RTR  --- 0 AODV 44 [0 ffffffff 5 800] ------- [5:255 -1:255 1 0] [0x1 1 [5 4] 4.000000] (HELLO)
s 1.935421588 _0_ RTR  --- 0 AODV 44 [0 0 0 0] ------- [0:255 -1:255 1 0] [0x1 1 [0 2] 4.000000] (HELLO)
s 1.935776588 _0_ MAC  --- 0 AODV 102 [0 ffffffff 0 800] ------- [0:255 -1:255 1 0] [0x1 1 [0 2] 4.000000] (HELLO)
s 1.951752753 _17_ RTR  --- 0 AODV 44 [0 0 0 0] ------- [17:255 -1:255 1 0] [0x1 1 [17 2] 4.000000] (HELLO)
s 1.952287753 _17_ MAC  --- 0 AODV 102 [0 ffffffff 11 800] ------- [17:255 -1:255 1 0] [0x1 1 [17 2] 4.000000] (HELLO)
s 1.989744961 _7_ RTR  --- 0 AODV 44 [0 0 0 0] ------- [7:255 -1:255 1 0] [0x1 1 [7 2] 4.000000] (HELLO)
s 1.990039961 _7_ MAC  --- 0 AODV 102 [0 ffffffff 7 800] ------- [7:255 -1:255 1 0] [0x1 1 [7 2] 4.000000] (HELLO)
r 1.990544214 _12_ MAC  --- 0 AODV 44 [0 ffffffff 7 800] ------- [7:255 -1:255 1 0] [0x1 1 [7 2] 4.000000] (HELLO)
r 1.990569214 _12_ RTR  --- 0 AODV 44 [0 ffffffff 7 800] ------- [7:255 -1:255 1 0] [0x1 1 [7 2] 4.000000] (HELLO)
s 2.005981187 _11_ RTR  --- 0 AODV 44 [0 0 0 0] ------- [11:255 -1:255 1 0] [0x1 1 [11 2] 4.000000] (HELLO)
s 2.006276187 _11_ MAC  --- 0 AODV 102 [0 ffffffff b 800] ------- [11:255 -1:255 1 0] [0x1 1 [11 2] 4.000000] (HELLO)
s 2.017684510 _9_ RTR  --- 0 AODV 44 [0 0 0 0] ------- [9:255 -1:255 1 0] [0x1 1 [9 2] 4.000000] (HELLO)
s 2.018059510 _9_ MAC  --- 0 AODV 102 [0 ffffffff 9 800] ------- [9:255 -1:255 1 0] [0x1 1 [9 2] 4.000000] (HELLO)
s 2.104267885 _18_ RTR  --- 0 AODV 44 [0 0 0 0] ------- [18:255 -1:255 1 0] [0x1 1 [18 2] 4.000000] (HELLO)
s 2.104582885 _18_ MAC  --- 0 AODV 102 [0 ffffffff 12 800] ------- [18:255 -1:255 1 0] [0x1 1 [18 2] 4.000000] (HELLO)
s 2.117561577 _4_ RTR  --- 0 AODV 44 [0 0 0 0] ------- [4:255 -1:255 1 0] [0x1 1 [4 2] 4.000000] (HELLO)
s 2.118016577 _4_ MAC  --- 0 AODV 102 [0 ffffffff 4 800] ------- [4:255 -1:255 1 0] [0x1 1 [4 2] 4.000000] (HELLO)
s 2.168974695 _12_ RTR  --- 0 AODV 44 [0 0 0 0] ------- [12:255 -1:255 1 0] [0x1 1 [12 4] 4.000000] (HELLO)
s 2.169049695 _12_ MAC  --- 0 AODV 102 [0 ffffffff c 800] ------- [12:255 -1:255 1 0] [0x1 1 [12 4] 4.000000] (HELLO)
r 2.169553930 _7_ MAC  --- 0 AODV 44 [0 ffffffff c 800] ------- [12:255 -1:255 1 0] [0x1 1 [12 4] 4.000000] (HELLO)
r 2.169578930 _7_ RTR  --- 0 AODV 44 [0 ffffffff c 800] ------- [12:255 -1:255 1 0] [0x1 1 [12 4] 4.000000] (HELLO)
s 2.226678883 _10_ RTR  --- 0 AODV 44 [0 0 0 0] ------- [10:255 -1:255 1 0] [0x1 1 [10 2] 4.000000] (HELLO)
s 2.227033883 _10_ MAC  --- 0 AODV 102 [0 ffffffff a 800] ------- [10:255 -1:255 1 0] [0x1 1 [10 2] 4.000000] (HELLO)
s 2.263656621 _20_ RTR  --- 0 AODV 44 [0 0 0 0] ------- [20:255 -1:255 1 0] [0x1 1 [20 2] 4.000000] (HELLO)
s 2.263931621 _20_ MAC  --- 0 AODV 102 [0 ffffffff 14 800] ------- [20:255 -1:255 1 0] [0x1 1 [20 2] 4.000000] (HELLO)
s 2.400000000 _19_ AGT  --- 0 cbr 1000 [0 0 0 0] ------- [19:0 18:0 32 0] [0] 0 0
r 2.400000000 _19_ RTR  --- 0 cbr 1000 [0 0 0 0] ------- [19:0 18:0 32 0] [0] 0 0
s 2.400000000 _19_ RTR  --- 0 AODV 48 [0 0 0 0] ------- [19:255 -1:255 30 0] [0x2 1 1 [18 0] [19 4]] (REQUEST)
s 2.400635000 _19_ MAC  --- 0 AODV 106 [0 ffffffff 13 800] ------- [19:255 -1:255 30 0] [0x2 1 1 [18 0] [19 4]] (REQUEST)
s 2.417857143 _19_ AGT  --- 1 cbr 1000 [0 0 0 0] ------- [19:0 18:0 32 0] [1] 0 0
r 2.417857143 _19_ RTR  --- 1 cbr 1000 [0 0 0 0] ------- [19:0 18:0 32 0] [1] 0 0
s 2.435714286 _19_ AGT  --- 2 cbr 1000 [0 0 0 0] ------- [19:0 18:0 32 0] [2] 0 0
r 2.435714286 _19_ RTR  --- 2 cbr 1000 [0 0 0 0] ------- [19:0 18:0 32 0] [2] 0 0
s 2.453571429 _19_ AGT  --- 3 cbr 1000 [0 0 0 0] ------- [19:0 18:0 32 0] [3] 0 0
r 2.453571429 _19_ RTR  --- 3 cbr 1000 [0 0 0 0] ------- [19:0 18:0 32 0] [3] 0 0
s 2.471428571 _19_ AGT  --- 4 cbr 1000 [0 0 0 0] ------- [19:0 18:0 32 0] [4] 0 0
r 2.471428571 _19_ RTR  --- 4 cbr 1000 [0 0 0 0] ------- [19:0 18:0 32 0] [4] 0 0
s 2.489285714 _19_ AGT  --- 5 cbr 1000 [0 0 0 0] ------- [19:0 18:0 32 0] [5] 0 0
r 2.489285714 _19_ RTR  --- 5 cbr 1000 [0 0 0 0] ------- [19:0 18:0 32 0] [5] 0 0
s 2.507142857 _19_ AGT  --- 6 cbr 1000 [0 0 0 0] ------- [19:0 18:0 32 0] [6] 0 0
r 2.507142857 _19_ RTR  --- 6 cbr 1000 [0 0 0 0] ------- [19:0 18:0 32 0] [6] 0 0
s 2.525000000 _19_ AGT  --- 7 cbr 1000 [0 0 0 0] ------- [19:0 18:0 32 0] [7] 0 0
r 2.525000000 _19_ RTR  --- 7 cbr 1000 [0 0 0 0] ------- [19:0 18:0 32 0] [7] 0 0
s 2.542857143 _19_ AGT  --- 8 cbr 1000 [0 0 0 0] ------- [19:0 18:0 32 0] [8] 0 0
r 2.542857143 _19_ RTR  --- 8 cbr 1000 [0 0 0 0] ------- [19:0 18:0 32 0] [8] 0 0
s 2.560714286 _19_ AGT  --- 9 cbr 1000 [0 0 0 0] ------- [19:0 18:0 32 0] [9] 0 0
r 2.560714286 _19_ RTR  --- 9 cbr 1000 [0 0 0 0] ------- [19:0 18:0 32 0] [9] 0 0
s 2.578571429 _19_ AGT  --- 10 cbr 1000 [0 0 0 0] ------- [19:0 18:0 32 0] [10] 0 0
r 2.578571429 _19_ RTR  --- 10 cbr 1000 [0 0 0 0] ------- [19:0 18:0 32 0] [10] 0 0
s 2.596428571 _19_ AGT  --- 11 cbr 1000 [0 0 0 0] ------- [19:0 18:0 32 0] [11] 0 0
r 2.596428571 _19_ RTR  --- 11 cbr 1000 [0 0 0 0] ------- [19:0 18:0 32 0] [11] 0 0
s 2.603934594 _19_ RTR  --- 0 AODV 44 [0 0 0 0] ------- [19:255 -1:255 1 0] [0x1 1 [19 4] 4.000000] (HELLO)
s 2.604389594 _19_ MAC  --- 0 AODV 102 [0 ffffffff 13 800] ------- [19:255 -1:255 1 0] [0x1 1 [19 4] 4.000000] (HELLO)
s 2.614285714 _19_ AGT  --- 12 cbr 1000 [0 0 0 0] ------- [19:0 18:0 32 0] [12] 0 0
r 2.614285714 _19_ RTR  --- 12 cbr 1000 [0 0 0 0] ------- [19:0 18:0 32 0] [12] 0 0
s 2.632142857 _19_ AGT  --- 13 cbr 1000 [0 0 0 0] ------- [19:0 18:0 32 0] [13] 0 0
r 2.632142857 _19_ RTR  --- 13 cbr 1000 [0 0 0 0] ------- [19:0 18:0 32 0] [13] 0 0
s 2.650000000 _19_ AGT  --- 14 cbr 1000 [0 0 0 0] ------- [19:0 18:0 32 0] [14] 0 0
r 2.650000000 _19_ RTR  --- 14 cbr 1000 [0 0 0 0] ------- [19:0 18:0 32 0] [14] 0 0
s 2.658285740 _14_ RTR  --- 0 AODV 44 [0 0 0 0] ------- [14:255 -1:255 1 0] [0x1 1 [14 2] 4.000000] (HELLO)
s 2.658900740 _14_ MAC  --- 0 AODV 102 [0 ffffffff e 800] ------- [14:255 -1:255 1 0] [0x1 1 [14 2] 4.000000] (HELLO)
s 2.667857143 _19_ AGT  --- 15 cbr 1000 [0 0 0 0] ------- [19:0 18:0 32 0] [15] 0 0
r 2.667857143 _19_ RTR  --- 15 cbr 1000 [0 0 0 0] ------- [19:0 18:0 32 0] [15] 0 0
s 2.685714286 _19_ AGT  --- 16 cbr 1000 [0 0 0 0] ------- [19:0 18:0 32 0] [16] 0 0
r 2.685714286 _19_ RTR  --- 16 cbr 1000 [0 0 0 0] ------- [19:0 18:0 32 0] [16] 0 0
s 2.703571429 _19_ AGT  --- 17 cbr 1000 [0 0 0 0] ------- [19:0 18:0 32 0] [17] 0 0
r 2.703571429 _19_ RTR  --- 17 cbr 1000 [0 0 0 0] ------- [19:0 18:0 32 0] [17] 0 0
s 2.721428571 _19_ AGT  --- 18 cbr 1000 [0 0 0 0] ------- [19:0 18:0 32 0] [18] 0 0
r 2.721428571 _19_ RTR  --- 18 cbr 1000 [0 0 0 0] ------- [19:0 18:0 32 0] [18] 0 0
s 2.736328554 _0_ RTR  --- 0 AODV 44 [0 0 0 0] ------- [0:255 -1:255 1 0] [0x1 1 [0 2] 4.000000] (HELLO)
s 2.736563554 _0_ MAC  --- 0 AODV 102 [0 ffffffff 0 800] ------- [0:255 -1:255 1 0] [0x1 1 [0 2] 4.000000] (HELLO)
s 2.739285714 _19_ AGT  --- 19 cbr 1000 [0 0 0 0] ------- [19:0 18:0 32 0] [19] 0 0
r 2.739285714 _19_ RTR  --- 19 cbr 1000 [0 0 0 0] ------- [19:0 18:0 32 0] [19] 0 0
s 2.742456848 _7_ RTR  --- 0 AODV 44 [0 0 0 0] ------- [7:255 -1:255 1 0] [0x1 1 [7 4] 4.000000] (HELLO)
s 2.742791848 _7_ MAC  --- 0 AODV 102 [0 ffffffff 7 800] ------- [7:255 -1:255 1 0] [0x1 1 [7 4] 4.000000] (HELLO)
r 2.743296039 _12_ MAC  --- 0 AODV 44 [0 ffffffff 7 800] ------- [7:255 -1:255 1 0] [0x1 1 [7 4] 4.000000] (HELLO)
r 2.743321039 _12_ RTR  --- 0 AODV 44 [0 ffffffff 7 800] ------- [7:255 -1:255 1 0] [0x1 1 [7 4] 4.000000] (HELLO)
s 2.757142857 _19_ AGT  --- 20 cbr 1000 [0 0 0 0] ------- [19:0 18:0 32 0] [20] 0 0
r 2.757142857 _19_ RTR  --- 20 cbr 1000 [0 0 0 0] ------- [19:0 18:0 32 0] [20] 0 0
s 2.765938765 _17_ RTR  --- 0 AODV 44 [0 0 0 0] ------- [17:255 -1:255 1 0] [0x1 1 [17 2] 4.000000] (HELLO)
s 2.766313765 _17_ MAC  --- 0 AODV 102 [0 ffffffff 11 800] ------- [17:255 -1:255 1 0] [0x1 1 [17 2] 4.000000] (HELLO)
s 2.775000000 _19_ AGT  --- 21 cbr 1000 [0 0 0 0] ------- [19:0 18:0 32 0] [21] 0 0
r 2.775000000 _19_ RTR  --- 21 cbr 1000 [0 0 0 0] ------- [19:0 18:0 32 0] [21] 0 0
s 2.792857143 _19_ AGT  --- 22 cbr 1000 [0 0 0 0] ------- [19:0 18:0 32 0] [22] 0 0
r 2.792857143 _19_ RTR  --- 22 cbr 1000 [0 0 0 0] ------- [19:0 18:0 32 0] [22] 0 0
s 2.796107024 _8_ RTR  --- 0 AODV 44 [0 0 0 0] ------- [8:255 -1:255 1 0] [0x1 1 [8 2] 4.000000] (HELLO)
s 2.796231600 _15_ RTR  --- 0 AODV 44 [0 0 0 0] ------- [15:255 -1:255 1 0] [0x1 1 [15 4] 4.000000] (HELLO)
s 2.796662024 _8_ MAC  --- 0 AODV 102 [0 ffffffff 8 800] ------- [8:255 -1:255 1 0] [0x1 1 [8 2] 4.000000] (HELLO)
s 2.796886600 _15_ MAC  --- 0 AODV 102 [0 ffffffff f 800] ------- [15:255 -1:255 1 0] [0x1 1 [15 4] 4.000000] (HELLO)
r 2.797390710 _16_ MAC  --- 0 AODV 44 [0 ffffffff f 800] ------- [15:255 -1:255 1 0] [0x1 1 [15 4] 4.000000] (HELLO)
r 2.797415710 _16_ RTR  --- 0 AODV 44 [0 ffffffff f 800] ------- [15:255 -1:255 1 0] [0x1 1 [15 4] 4.000000] (HELLO)
s 2.810714286 _19_ AGT  --- 23 cbr 1000 [0 0 0 0] ------- [19:0 18:0 32 0] [23] 0 0
r 2.810714286 _19_ RTR  --- 23 cbr 1000 [0 0 0 0] ------- [19:0 18:0 32 0] [23] 0 0
s 2.820954834 _16_ RTR  --- 0 AODV 44 [0 0 0 0] ------- [16:255 -1:255 1 0] [0x1 1 [16 4] 4.000000] (HELLO)
s 2.821209834 _16_ MAC  --- 0 AODV 102 [0 ffffffff 10 800] ------- [16:255 -1:255 1 0] [0x1 1 [16 4] 4.000000] (HELLO)
r 2.821713943 _15_ MAC  --- 0 AODV 44 [0 ffffffff 10 800] ------- [16:255 -1:255 1 0] [0x1 1 [16 4] 4.000000] (HELLO)
r 2.821738943 _15_ RTR  --- 0 AODV 44 [0 ffffffff 10 800] ------- [16:255 -1:255 1 0] [0x1 1 [16 4] 4.000000] (HELLO)
s 2.828571429 _19_ AGT  --- 24 cbr 1000 [0 0 0 0] ------- [19:0 18:0 32 0] [24] 0 0
r 2.828571429 _19_ RTR  --- 24 cbr 1000 [0 0 0 0] ------- [19:0 18:0 32 0] [24] 0 0
s 2.846428571 _19_ AGT  --- 25 cbr 1000 [0 0 0 0] ------- [19:0 18:0 32 0] [25] 0 0
r 2.846428571 _19_ RTR  --- 25 cbr 1000 [0 0 0 0] ------- [19:0 18:0 32 0] [25] 0 0
s 2.855852235 _6_ RTR  --- 0 AODV 44 [0 0 0 0] ------- [6:255 -1:255 1 0] [0x1 1 [6 4] 4.000000] (HELLO)
s 2.856527235 _6_ MAC  --- 0 AODV 102 [0 ffffffff 6 800] ------- [6:255 -1:255 1 0] [0x1 1 [6 4] 4.000000] (HELLO)
s 2.864285714 _19_ AGT  --- 26 cbr 1000 [0 0 0 0] ------- [19:0 18:0 32 0] [26] 0 0
r 2.864285714 _19_ RTR  --- 26 cbr 1000 [0 0 0 0] ------- [19:0 18:0 32 0] [26] 0 0
s 2.882142857 _19_ AGT  --- 27 cbr 1000 [0 0 0 0] ------- [19:0 18:0 32 0] [27] 0 0
r 2.882142857 _19_ RTR  --- 27 cbr 1000 [0 0 0 0] ------- [19:0 18:0 32 0] [27] 0 0
s 2.900000000 _19_ AGT  --- 28 cbr 1000 [0 0 0 0] ------- [19:0 18:0 32 0] [28] 0 0
r 2.900000000 _19_ RTR  --- 28 cbr 1000 [0 0 0 0] ------- [19:0 18:0 32 0] [28] 0 0
s 2.902133333 _1_ RTR  --- 0 AODV 44 [0 0 0 0] ------- [1:255 -1:255 1 0] [0x1 1 [1 2] 4.000000] (HELLO)
s 2.902668333 _1_ MAC  --- 0 AODV 102 [0 ffffffff 1 800] ------- [1:255 -1:255 1 0] [0x1 1 [1 2] 4.000000] (HELLO)
s 2.917857143 _19_ AGT  --- 29 cbr 1000 [0 0 0 0] ------- [19:0 18:0 32 0] [29] 0 0
r 2.917857143 _19_ RTR  --- 29 cbr 1000 [0 0 0 0] ------- [19:0 18:0 32 0] [29] 0 0
s 2.934297202 _18_ RTR  --- 0 AODV 44 [0 0 0 0] ------- [18:255 -1:255 1 0] [0x1 1 [18 2] 4.000000] (HELLO)
s 2.934652202 _18_ MAC  --- 0 AODV 102 [0 ffffffff 12 800] ------- [18:255 -1:255 1 0] [0x1 1 [18 2] 4.000000] (HELLO)
s 2.935714286 _19_ AGT  --- 30 cbr 1000 [0 0 0 0] ------- [19:0 18:0 32 0] [30] 0 0
r 2.935714286 _19_ RTR  --- 30 cbr 1000 [0 0 0 0] ------- [19:0 18:0 32 0] [30] 0 0
s 2.953571429 _19_ AGT  --- 31 cbr 1000 [0 0 0 0] ------- [19:0 18:0 32 0] [31] 0 0
r 2.953571429 _19_ RTR  --- 31 cbr 1000 [0 0 0 0] ------- [19:0 18:0 32 0] [31] 0 0
s 2.960879641 _3_ RTR  --- 0 AODV 44 [0 0 0 0] ------- [3:255 -1:255 1 0] [0x1 1 [3 2] 4.000000] (HELLO)
s 2.961394641 _3_ MAC  --- 0 AODV 102 [0 ffffffff 3 800] ------- [3:255 -1:255 1 0] [0x1 1 [3 2] 4.000000] (HELLO)
s 2.966288418 _11_ RTR  --- 0 AODV 44 [0 0 0 0] ------- [11:255 -1:255 1 0] [0x1 1 [11 2] 4.000000] (HELLO)
s 2.966963418 _11_ MAC  --- 0 AODV 102 [0 ffffffff b 800] ------- [11:255 -1:255 1 0] [0x1 1 [11 2] 4.000000] (HELLO)
s 2.971428571 _19_ AGT  --- 32 cbr 1000 [0 0 0 0] ------- [19:0 18:0 32 0] [32] 0 0
r 2.971428571 _19_ RTR  --- 32 cbr 1000 [0 0 0 0] ------- [19:0 18:0 32 0] [32] 0 0
s 2.989285714 _19_ AGT  --- 33 cbr 1000 [0 0 0 0] ------- [19:0 18:0 32 0] [33] 0 0
r 2.989285714 _19_ RTR  --- 33 cbr 1000 [0 0 0 0] ------- [19:0 18:0 32 0] [33] 0 0
s 3.007142857 _19_ AGT  --- 34 cbr 1000 [0 0 0 0] ------- [19:0 18:0 32 0] [34] 0 0
r 3.007142857 _19_ RTR  --- 34 cbr 1000 [0 0 0 0] ------- [19:0 18:0 32 0] [34] 0 0
s 3.025000000 _19_ AGT  --- 35 cbr 1000 [0 0 0 0] ------- [19:0 18:0 32 0] [35] 0 0
r 3.025000000 _19_ RTR  --- 35 cbr 1000 [0 0 0 0] ------- [19:0 18:0 32 0] [35] 0 0
s 3.042857143 _19_ AGT  --- 36 cbr 1000 [0 0 0 0] ------- [19:0 18:0 32 0] [36] 0 0
r 3.042857143 _19_ RTR  --- 36 cbr 1000 [0 0 0 0] ------- [19:0 18:0 32 0] [36] 0 0
s 3.060714286 _19_ AGT  --- 37 cbr 1000 [0 0 0 0] ------- [19:0 18:0 32 0] [37] 0 0
r 3.060714286 _19_ RTR  --- 37 cbr 1000 [0 0 0 0] ------- [19:0 18:0 32 0] [37] 0 0
s 3.078571429 _19_ AGT  --- 38 cbr 1000 [0 0 0 0] ------- [19:0 18:0 32 0] [38] 0 0
r 3.078571429 _19_ RTR  --- 38 cbr 1000 [0 0 0 0] ------- [19:0 18:0 32 0] [38] 0 0
s 3.096428571 _19_ AGT  --- 39 cbr 1000 [0 0 0 0] ------- [19:0 18:0 32 0] [39] 0 0
r 3.096428571 _19_ RTR  --- 39 cbr 1000 [0 0 0 0] ------- [19:0 18:0 32 0] [39] 0 0
s 3.114285714 _19_ AGT  --- 40 cbr 1000 [0 0 0 0] ------- [19:0 18:0 32 0] [40] 0 0
r 3.114285714 _19_ RTR  --- 40 cbr 1000 [0 0 0 0] ------- [19:0 18:0 32 0] [40] 0 0
s 3.115890624 _5_ RTR  --- 0 AODV 44 [0 0 0 0] ------- [5:255 -1:255 1 0] [0x1 1 [5 4] 4.000000] (HELLO)
s 3.116385624 _5_ MAC  --- 0 AODV 102 [0 ffffffff 5 800] ------- [5:255 -1:255 1 0] [0x1 1 [5 4] 4.000000] (HELLO)
s 3.125425667 _2_ RTR  --- 0 AODV 44 [0 0 0 0] ------- [2:255 -1:255 1 0] [0x1 1 [2 2] 4.000000] (HELLO)
s 3.126040667 _2_ MAC  --- 0 AODV 102 [0 ffffffff 2 800] ------- [2:255 -1:255 1 0] [0x1 1 [2 2] 4.000000] (HELLO)
s 3.126453505 _4_ RTR  --- 0 AODV 44 [0 0 0 0] ------- [4:255 -1:255 1 0] [0x1 1 [4 2] 4.000000] (HELLO)
s 3.126868505 _4_ MAC  --- 0 AODV 102 [0 ffffffff 4 800] ------- [4:255 -1:255 1 0] [0x1 1 [4 2] 4.000000] (HELLO)
s 3.132142857 _19_ AGT  --- 41 cbr 1000 [0 0 0 0] ------- [19:0 18:0 32 0] [41] 0 0
r 3.132142857 _19_ RTR  --- 41 cbr 1000 [0 0 0 0] ------- [19:0 18:0 32 0] [41] 0 0
s 3.134315345 _13_ RTR  --- 0 AODV 44 [0 0 0 0] ------- [13:255 -1:255 1 0] [0x1 1 [13 2] 4.000000] (HELLO)
s 3.134770345 _13_ MAC  --- 0 AODV 102 [0 ffffffff d 800] ------- [13:255 -1:255 1 0] [0x1 1 [13 2] 4.000000] (HELLO)
s 3.147386051 _9_ RTR  --- 0 AODV 44 [0 0 0 0] ------- [9:255 -1:255 1 0] [0x1 1 [9 2] 4.000000] (HELLO)
s 3.148001051 _9_ MAC  --- 0 AODV 102 [0 ffffffff 9 800] ------- [9:255 -1:255 1 0] [0x1 1 [9 2] 4.000000] (HELLO)
r 3.148505382 _6_ MAC  --- 0 AODV 44 [0 ffffffff 9 800] ------- [9:255 -1:255 1 0] [0x1 1 [9 2] 4.000000] (HELLO)
r 3.148530382 _6_ RTR  --- 0 AODV 44 [0 ffffffff 9 800] ------- [9:255 -1:255 1 0] [0x1 1 [9 2] 4.000000] (HELLO)
s 3.150000000 _19_ AGT  --- 42 cbr 1000 [0 0 0 0] ------- [19:0 18:0 32 0] [42] 0 0