s 0.000000000 _0_ RTR  --- 0 AODV 44 [0 0 0 0] ------- [0:255 -1:255 1 0] [0x1 1 [0 2] 4.000000] (HELLO)
s 0.000000000 _1_ RTR  --- 0 AODV 44 [0 0 0 0] ------- [1:255 -1:255 1 0] [0x1 1 [1 2] 4.000000] (HELLO)
s 0.000000000 _2_ RTR  --- 0 AODV 44 [0 0 0 0] ------- [2:255 -1:255 1 0] [0x1 1 [2 2] 4.000000] (HELLO)
s 0.000000000 _3_ RTR  --- 0 AODV 44 [0 0 0 0] ------- [3:255 -1:255 1 0] [0x1 1 [3 2] 4.000000] (HELLO)
s 0.000000000 _4_ RTR  --- 0 AODV 44 [0 0 0 0] ------- [4:255 -1:255 1 0] [0x1 1 [4 2] 4.000000] (HELLO)
s 0.000000000 _5_ RTR  --- 0 AODV 44 [0 0 0 0] ------- [5:255 -1:255 1 0] [0x1 1 [5 2] 4.000000] (HELLO)
s 0.000000000 _6_ RTR  --- 0 AODV 44 [0 0 0 0] ------- [6:255 -1:255 1 0] [0x1 1 [6 2] 4.000000] (HELLO)
s 0.000000000 _7_ RTR  --- 0 AODV 44 [0 0 0 0] ------- [7:255 -1:255 1 0] [0x1 1 [7 2] 4.000000] (HELLO)
s 0.000000000 _8_ RTR  --- 0 AODV 44 [0 0 0 0] ------- [8:255 -1:255 1 0] [0x1 1 [8 2] 4.000000] (HELLO)
s 0.000000000 _9_ RTR  --- 0 AODV 44 [0 0 0 0] ------- [9:255 -1:255 1 0] [0x1 1 [9 2] 4.000000] (HELLO)
s 0.000000000 _10_ RTR  --- 0 AODV 44 [0 0 0 0] ------- [10:255 -1:255 1 0] [0x1 1 [10 2] 4.000000] (HELLO)
s 0.000000000 _11_ RTR  --- 0 AODV 44 [0 0 0 0] ------- [11:255 -1:255 1 0] [0x1 1 [11 2] 4.000000] (HELLO)
s 0.000000000 _12_ RTR  --- 0 AODV 44 [0 0 0 0] ------- [12:255 -1:255 1 0] [0x1 1 [12 2] 4.000000] (HELLO)
s 0.000000000 _13_ RTR  --- 0 AODV 44 [0 0 0 0] ------- [13:255 -1:255 1 0] [0x1 1 [13 2] 4.000000] (HELLO)
s 0.000000000 _14_ RTR  --- 0 AODV 44 [0 0 0 0] ------- [14:255 -1:255 1 0] [0x1 1 [14 2] 4.000000] (HELLO)
s 0.000000000 _15_ RTR  --- 0 AODV 44 [0 0 0 0] ------- [15:255 -1:255 1 0] [0x1 1 [15 2] 4.000000] (HELLO)
s 0.000000000 _16_ RTR  --- 0 AODV 44 [0 0 0 0] ------- [16:255 -1:255 1 0] [0x1 1 [16 2] 4.000000] (HELLO)
s 0.000000000 _17_ RTR  --- 0 AODV 44 [0 0 0 0] ------- [17:255 -1:255 1 0] [0x1 1 [17 2] 4.000000] (HELLO)
s 0.000000000 _18_ RTR  --- 0 AODV 44 [0 0 0 0] ------- [18:255 -1:255 1 0] [0x1 1 [18 2] 4.000000] (HELLO)
s 0.000000000 _19_ RTR  --- 0 AODV 44 [0 0 0 0] ------- [19:255 -1:255 1 0] [0x1 1 [19 2] 4.000000] (HELLO)
s 0.000000000 _20_ RTR  --- 0 AODV 44 [0 0 0 0] ------- [20:255 -1:255 1 0] [0x1 1 [20 2] 4.000000] (HELLO)
s 0.000000000 _21_ RTR  --- 0 AODV 44 [0 0 0 0] ------- [21:255 -1:255 1 0] [0x1 1 [21 2] 4.000000] (HELLO)
s 0.000000000 _22_ RTR  --- 0 AODV 44 [0 0 0 0] ------- [22:255 -1:255 1 0] [0x1 1 [22 2] 4.000000] (HELLO)
s 0.000000000 _23_ RTR  --- 0 AODV 44 [0 0 0 0] ------- [23:255 -1:255 1 0] [0x1 1 [23 2] 4.000000] (HELLO)
s 0.000000000 _24_ RTR  --- 0 AODV 44 [0 0 0 0] ------- [24:255 -1:255 1 0] [0x1 1 [24 2] 4.000000] (HELLO)
s 0.000000000 _25_ RTR  --- 0 AODV 44 [0 0 0 0] ------- [25:255 -1:255 1 0] [0x1 1 [25 2] 4.000000] (HELLO)
s 0.000000000 _26_ RTR  --- 0 AODV 44 [0 0 0 0] ------- [26:255 -1:255 1 0] [0x1 1 [26 2] 4.000000] (HELLO)
s 0.000000000 _27_ RTR  --- 0 AODV 44 [0 0 0 0] ------- [27:255 -1:255 1 0] [0x1 1 [27 2] 4.000000] (HELLO)
s 0.000000000 _28_ RTR  --- 0 AODV 44 [0 0 0 0] ------- [28:255 -1:255 1 0] [0x1 1 [28 2] 4.000000] (HELLO)
s 0.000000000 _29_ RTR  --- 0 AODV 44 [0 0 0 0] ------- [29:255 -1:255 1 0] [0x1 1 [29 2] 4.000000] (HELLO)
s 0.000000000 _30_ RTR  --- 0 AODV 44 [0 0 0 0] ------- [30:255 -1:255 1 0] [0x1 1 [30 2] 4.000000] (HELLO)
s 0.000000000 _31_ RTR  --- 0 AODV 44 [0 0 0 0] ------- [31:255 -1:255 1 0] [0x1 1 [31 2] 4.000000] (HELLO)
s 0.000000000 _32_ RTR  --- 0 AODV 44 [0 0 0 0] ------- [32:255 -1:255 1 0] [0x1 1 [32 2] 4.000000] (HELLO)
s 0.000000000 _33_ RTR  --- 0 AODV 44 [0 0 0 0] ------- [33:255 -1:255 1 0] [0x1 1 [33 2] 4.000000] (HELLO)
s 0.000000000 _34_ RTR  --- 0 AODV 44 [0 0 0 0] ------- [34:255 -1:255 1 0] [0x1 1 [34 2] 4.000000] (HELLO)
s 0.000000000 _35_ RTR  --- 0 AODV 44 [0 0 0 0] ------- [35:255 -1:255 1 0] [0x1 1 [35 2] 4.000000] (HELLO)
s 0.000000000 _36_ RTR  --- 0 AODV 44 [0 0 0 0] ------- [36:255 -1:255 1 0] [0x1 1 [36 2] 4.000000] (HELLO)
s 0.000000000 _37_ RTR  --- 0 AODV 44 [0 0 0 0] ------- [37:255 -1:255 1 0] [0x1 1 [37 2] 4.000000] (HELLO)
s 0.000000000 _38_ RTR  --- 0 AODV 44 [0 0 0 0] ------- [38:255 -1:255 1 0] [0x1 1 [38 2] 4.000000] (HELLO)
s 0.000000000 _39_ RTR  --- 0 AODV 44 [0 0 0 0] ------- [39:255 -1:255 1 0] [0x1 1 [39 2] 4.000000] (HELLO)
s 0.000000000 _40_ RTR  --- 0 AODV 44 [0 0 0 0] ------- [40:255 -1:255 1 0] [0x1 1 [40 2] 4.000000] (HELLO)
s 0.000000000 _41_ RTR  --- 0 AODV 44 [0 0 0 0] ------- [41:255 -1:255 1 0] [0x1 1 [41 2] 4.000000] (HELLO)
s 0.000000000 _42_ RTR  --- 0 AODV 44 [0 0 0 0] ------- [42:255 -1:255 1 0] [0x1 1 [42 2] 4.000000] (HELLO)
s 0.000000000 _43_ RTR  --- 0 AODV 44 [0 0 0 0] ------- [43:255 -1:255 1 0] [0x1 1 [43 2] 4.000000] (HELLO)
s 0.000000000 _44_ RTR  --- 0 AODV 44 [0 0 0 0] ------- [44:255 -1:255 1 0] [0x1 1 [44 2] 4.000000] (HELLO)
s 0.000000000 _45_ RTR  --- 0 AODV 44 [0 0 0 0] ------- [45:255 -1:255 1 0] [0x1 1 [45 2] 4.000000] (HELLO)
s 0.000000000 _46_ RTR  --- 0 AODV 44 [0 0 0 0] ------- [46:255 -1:255 1 0] [0x1 1 [46 2] 4.000000] (HELLO)
s 0.000000000 _47_ RTR  --- 0 AODV 44 [0 0 0 0] ------- [47:255 -1:255 1 0] [0x1 1 [47 2] 4.000000] (HELLO)
s 0.000000000 _48_ RTR  --- 0 AODV 44 [0 0 0 0] ------- [48:255 -1:255 1 0] [0x1 1 [48 2] 4.000000] (HELLO)
s 0.000000000 _49_ RTR  --- 0 AODV 44 [0 0 0 0] ------- [49:255 -1:255 1 0] [0x1 1 [49 2] 4.000000] (HELLO)
r 0.000604067 _31_ RTR  --- 0 AODV 44 [0 ffffffff 31 800] ------- [49:255 -1:255 1 0] [0x1 1 [49 2] 4.000000] (HELLO)
r 0.000604083 _40_ RTR  --- 0 AODV 44 [0 ffffffff 31 800] ------- [49:255 -1:255 1 0] [0x1 1 [49 2] 4.000000] (HELLO)
r 0.000604085 _6_ RTR  --- 0 AODV 44 [0 ffffffff 1 800] ------- [1:255 -1:255 1 0] [0x1 1 [1 2] 4.000000] (HELLO)
r 0.000604090 _47_ RTR  --- 0 AODV 44 [0 ffffffff 31 800] ------- [49:255 -1:255 1 0] [0x1 1 [49 2] 4.000000] (HELLO)
r 0.000604112 _16_ RTR  --- 0 AODV 44 [0 ffffffff 8 800] ------- [8:255 -1:255 1 0] [0x1 1 [8 2] 4.000000] (HELLO)
r 0.000604167 _13_ RTR  --- 0 AODV 44 [0 ffffffff 1 800] ------- [1:255 -1:255 1 0] [0x1 1 [1 2] 4.000000] (HELLO)
r 0.000604172 _20_ RTR  --- 0 AODV 44 [0 ffffffff 8 800] ------- [8:255 -1:255 1 0] [0x1 1 [8 2] 4.000000] (HELLO)
r 0.000604172 _11_ RTR  --- 0 AODV 44 [0 ffffffff 8 800] ------- [8:255 -1:255 1 0] [0x1 1 [8 2] 4.000000] (HELLO)
r 0.000604186 _45_ RTR  --- 0 AODV 44 [0 ffffffff 31 800] ------- [49:255 -1:255 1 0] [0x1 1 [49 2] 4.000000] (HELLO)
r 0.000604192 _14_ RTR  --- 0 AODV 44 [0 ffffffff 1 800] ------- [1:255 -1:255 1 0] [0x1 1 [1 2] 4.000000] (HELLO)
r 0.000604221 _7_ RTR  --- 0 AODV 44 [0 ffffffff 1 800] ------- [1:255 -1:255 1 0] [0x1 1 [1 2] 4.000000] (HELLO)
r 0.000604232 _36_ RTR  --- 0 AODV 44 [0 ffffffff 31 800] ------- [49:255 -1:255 1 0] [0x1 1 [49 2] 4.000000] (HELLO)
r 0.000604254 _25_ RTR  --- 0 AODV 44 [0 ffffffff 8 800] ------- [8:255 -1:255 1 0] [0x1 1 [8 2] 4.000000] (HELLO)
r 0.000604254 _46_ RTR  --- 0 AODV 44 [0 ffffffff 31 800] ------- [49:255 -1:255 1 0] [0x1 1 [49 2] 4.000000] (HELLO)
r 0.000644047 _38_ RTR  --- 0 AODV 44 [0 ffffffff 27 800] ------- [39:255 -1:255 1 0] [0x1 1 [39 2] 4.000000] (HELLO)
r 0.000704067 _2_ RTR  --- 0 AODV 44 [0 ffffffff 15 800] ------- [21:255 -1:255 1 0] [0x1 1 [21 2] 4.000000] (HELLO)
r 0.000704112 _10_ RTR  --- 0 AODV 44 [0 ffffffff 15 800] ------- [21:255 -1:255 1 0] [0x1 1 [21 2] 4.000000] (HELLO)
r 0.000704203 _4_ RTR  --- 0 AODV 44 [0 ffffffff 15 800] ------- [21:255 -1:255 1 0] [0x1 1 [21 2] 4.000000] (HELLO)
r 0.000704219 _5_ RTR  --- 0 AODV 44 [0 ffffffff 15 800] ------- [21:255 -1:255 1 0] [0x1 1 [21 2] 4.000000] (HELLO)
r 0.000764060 _44_ RTR  --- 0 AODV 44 [0 ffffffff 2b 800] ------- [43:255 -1:255 1 0] [0x1 1 [43 2] 4.000000] (HELLO)
r 0.000764083 _41_ RTR  --- 0 AODV 44 [0 ffffffff 2b 800] ------- [43:255 -1:255 1 0] [0x1 1 [43 2] 4.000000] (HELLO)
r 0.000764310 _48_ RTR  --- 0 AODV 44 [0 ffffffff 2b 800] ------- [43:255 -1:255 1 0] [0x1 1 [43 2] 4.000000] (HELLO)
r 0.000944053 _27_ RTR  --- 0 AODV 44 [0 ffffffff 1a 800] ------- [26:255 -1:255 1 0] [0x1 1 [26 2] 4.000000] (HELLO)
r 0.001218508 _8_ RTR  --- 0 AODV 44 [0 ffffffff 19 800] ------- [25:255 -1:255 1 0] [0x1 1 [25 2] 4.000000] (HELLO)
r 0.001238145 _12_ RTR  --- 0 AODV 44 [0 ffffffff 6 800] ------- [6:255 -1:255 1 0] [0x1 1 [6 2] 4.000000] (HELLO)
r 0.001238170 _1_ RTR  --- 0 AODV 44 [0 ffffffff 6 800] ------- [6:255 -1:255 1 0] [0x1 1 [6 2] 4.000000] (HELLO)
r 0.001238242 _0_ RTR  --- 0 AODV 44 [0 ffffffff 6 800] ------- [6:255 -1:255 1 0] [0x1 1 [6 2] 4.000000] (HELLO)
r 0.001238265 _13_ RTR  --- 0 AODV 44 [0 ffffffff 6 800] ------- [6:255 -1:255 1 0] [0x1 1 [6 2] 4.000000] (HELLO)
r 0.001238342 _7_ RTR  --- 0 AODV 44 [0 ffffffff 6 800] ------- [6:255 -1:255 1 0] [0x1 1 [6 2] 4.000000] (HELLO)
r 0.001238358 _14_ RTR  --- 0 AODV 44 [0 ffffffff 6 800] ------- [6:255 -1:255 1 0] [0x1 1 [6 2] 4.000000] (HELLO)
r 0.001238391 _18_ RTR  --- 0 AODV 44 [0 ffffffff 6 800] ------- [6:255 -1:255 1 0] [0x1 1 [6 2] 4.000000] (HELLO)
r 0.001278133 _49_ RTR  --- 0 AODV 44 [0 ffffffff 1f 800] ------- [31:255 -1:255 1 0] [0x1 1 [31 2] 4.000000] (HELLO)
r 0.001278273 _36_ RTR  --- 0 AODV 44 [0 ffffffff 1f 800] ------- [31:255 -1:255 1 0] [0x1 1 [31 2] 4.000000] (HELLO)
r 0.001278338 _33_ RTR  --- 0 AODV 44 [0 ffffffff 1f 800] ------- [31:255 -1:255 1 0] [0x1 1 [31 2] 4.000000] (HELLO)
r 0.001278344 _35_ RTR  --- 0 AODV 44 [0 ffffffff 1f 800] ------- [31:255 -1:255 1 0] [0x1 1 [31 2] 4.000000] (HELLO)
r 0.001318271 _5_ RTR  --- 0 AODV 44 [0 ffffffff 4 800] ------- [4:255 -1:255 1 0] [0x1 1 [4 2] 4.000000] (HELLO)
r 0.001318333 _3_ RTR  --- 0 AODV 44 [0 ffffffff 4 800] ------- [4:255 -1:255 1 0] [0x1 1 [4 2] 4.000000] (HELLO)
r 0.001378167 _43_ RTR  --- 0 AODV 44 [0 ffffffff 29 800] ------- [41:255 -1:255 1 0] [0x1 1 [41 2] 4.000000] (HELLO)
r 0.001378189 _44_ RTR  --- 0 AODV 44 [0 ffffffff 29 800] ------- [41:255 -1:255 1 0] [0x1 1 [41 2] 4.000000] (HELLO)
r 0.001498094 _39_ RTR  --- 0 AODV 44 [0 ffffffff 26 800] ------- [38:255 -1:255 1 0] [0x1 1 [38 2] 4.000000] (HELLO)
r 0.001498338 _37_ RTR  --- 0 AODV 44 [0 ffffffff 26 800] ------- [38:255 -1:255 1 0] [0x1 1 [38 2] 4.000000] (HELLO)
r 0.001812205 _6_ RTR  --- 0 AODV 44 [0 ffffffff c 800] ------- [12:255 -1:255 1 0] [0x1 1 [12 2] 4.000000] (HELLO)
r 0.001812287 _1_ RTR  --- 0 AODV 44 [0 ffffffff c 800] ------- [12:255 -1:255 1 0] [0x1 1 [12 2] 4.000000] (HELLO)
r 0.001812335 _13_ RTR  --- 0 AODV 44 [0 ffffffff c 800] ------- [12:255 -1:255 1 0] [0x1 1 [12 2] 4.000000] (HELLO)
r 0.001812421 _7_ RTR  --- 0 AODV 44 [0 ffffffff c 800] ------- [12:255 -1:255 1 0] [0x1 1 [12 2] 4.000000] (HELLO)
r 0.001822395 _19_ RTR  --- 0 AODV 44 [0 ffffffff 11 800] ------- [17:255 -1:255 1 0] [0x1 1 [17 2] 4.000000] (HELLO)
r 0.001822430 _22_ RTR  --- 0 AODV 44 [0 ffffffff 11 800] ------- [17:255 -1:255 1 0] [0x1 1 [17 2] 4.000000] (HELLO)
r 0.001822526 _18_ RTR  --- 0 AODV 44 [0 ffffffff 11 800] ------- [17:255 -1:255 1 0] [0x1 1 [17 2] 4.000000] (HELLO)
r 0.001822557 _8_ RTR  --- 0 AODV 44 [0 ffffffff 11 800] ------- [17:255 -1:255 1 0] [0x1 1 [17 2] 4.000000] (HELLO)
r 0.001822646 _23_ RTR  --- 0 AODV 44 [0 ffffffff 11 800] ------- [17:255 -1:255 1 0] [0x1 1 [17 2] 4.000000] (HELLO)
r 0.001932340 _4_ RTR  --- 0 AODV 44 [0 ffffffff 5 800] ------- [5:255 -1:255 1 0] [0x1 1 [5 2] 4.000000] (HELLO)
r 0.001932443 _3_ RTR  --- 0 AODV 44 [0 ffffffff 5 800] ------- [5:255 -1:255 1 0] [0x1 1 [5 2] 4.000000] (HELLO)
r 0.001932526 _11_ RTR  --- 0 AODV 44 [0 ffffffff 5 800] ------- [5:255 -1:255 1 0] [0x1 1 [5 2] 4.000000] (HELLO)
r 0.001932526 _20_ RTR  --- 0 AODV 44 [0 ffffffff 5 800] ------- [5:255 -1:255 1 0] [0x1 1 [5 2] 4.000000] (HELLO)
r 0.002012463 _35_ RTR  --- 0 AODV 44 [0 ffffffff 24 800] ------- [36:255 -1:255 1 0] [0x1 1 [36 2] 4.000000] (HELLO)
r 0.002012479 _31_ RTR  --- 0 AODV 44 [0 ffffffff 24 800] ------- [36:255 -1:255 1 0] [0x1 1 [36 2] 4.000000] (HELLO)
r 0.002012504 _49_ RTR  --- 0 AODV 44 [0 ffffffff 24 800] ------- [36:255 -1:255 1 0] [0x1 1 [36 2] 4.000000] (HELLO)
r 0.002012556 _40_ RTR  --- 0 AODV 44 [0 ffffffff 24 800] ------- [36:255 -1:255 1 0] [0x1 1 [36 2] 4.000000] (HELLO)
r 0.002152249 _43_ RTR  --- 0 AODV 44 [0 ffffffff 2c 800] ------- [44:255 -1:255 1 0] [0x1 1 [44 2] 4.000000] (HELLO)
r 0.002152294 _41_ RTR  --- 0 AODV 44 [0 ffffffff 2c 800] ------- [44:255 -1:255 1 0] [0x1 1 [44 2] 4.000000] (HELLO)
r 0.002156636 _28_ RTR  --- 0 AODV 44 [0 ffffffff 1d 800] ------- [29:255 -1:255 1 0] [0x1 1 [29 2] 4.000000] (HELLO)
r 0.002156679 _37_ RTR  --- 0 AODV 44 [0 ffffffff 1d 800] ------- [29:255 -1:255 1 0] [0x1 1 [29 2] 4.000000] (HELLO)
r 0.002156795 _26_ RTR  --- 0 AODV 44 [0 ffffffff 1d 800] ------- [29:255 -1:255 1 0] [0x1 1 [29 2] 4.000000] (HELLO)
r 0.002156841 _27_ RTR  --- 0 AODV 44 [0 ffffffff 1d 800] ------- [29:255 -1:255 1 0] [0x1 1 [29 2] 4.000000] (HELLO)
r 0.002256786 _45_ RTR  --- 0 AODV 44 [0 ffffffff 30 800] ------- [48:255 -1:255 1 0] [0x1 1 [48 2] 4.000000] (HELLO)
r 0.002456466 _17_ RTR  --- 0 AODV 44 [0 ffffffff 13 800] ------- [19:255 -1:255 1 0] [0x1 1 [19 2] 4.000000] (HELLO)
r 0.002456630 _18_ RTR  --- 0 AODV 44 [0 ffffffff 13 800] ------- [19:255 -1:255 1 0] [0x1 1 [19 2] 4.000000] (HELLO)
r 0.002566509 _13_ RTR  --- 0 AODV 44 [0 ffffffff 7 800] ------- [7:255 -1:255 1 0] [0x1 1 [7 2] 4.000000] (HELLO)
r 0.002566641 _1_ RTR  --- 0 AODV 44 [0 ffffffff 7 800] ------- [7:255 -1:255 1 0] [0x1 1 [7 2] 4.000000] (HELLO)
r 0.002566678 _6_ RTR  --- 0 AODV 44 [0 ffffffff 7 800] ------- [7:255 -1:255 1 0] [0x1 1 [7 2] 4.000000] (HELLO)
r 0.002626526 _11_ RTR  --- 0 AODV 44 [0 ffffffff 14 800] ------- [20:255 -1:255 1 0] [0x1 1 [20 2] 4.000000] (HELLO)
r 0.002626609 _3_ RTR  --- 0 AODV 44 [0 ffffffff 14 800] ------- [20:255 -1:255 1 0] [0x1 1 [20 2] 4.000000] (HELLO)
r 0.002626660 _9_ RTR  --- 0 AODV 44 [0 ffffffff 14 800] ------- [20:255 -1:255 1 0] [0x1 1 [20 2] 4.000000] (HELLO)
r 0.002626703 _15_ RTR  --- 0 AODV 44 [0 ffffffff 14 800] ------- [20:255 -1:255 1 0] [0x1 1 [20 2] 4.000000] (HELLO)
r 0.002686568 _33_ RTR  --- 0 AODV 44 [0 ffffffff 23 800] ------- [35:255 -1:255 1 0] [0x1 1 [35 2] 4.000000] (HELLO)
r 0.002790684 _29_ RTR  --- 0 AODV 44 [0 ffffffff 1c 800] ------- [28:255 -1:255 1 0] [0x1 1 [28 2] 4.000000] (HELLO)
r 0.002790884 _26_ RTR  --- 0 AODV 44 [0 ffffffff 1c 800] ------- [28:255 -1:255 1 0] [0x1 1 [28 2] 4.000000] (HELLO)
r 0.002790927 _27_ RTR  --- 0 AODV 44 [0 ffffffff 1c 800] ------- [28:255 -1:255 1 0] [0x1 1 [28 2] 4.000000] (HELLO)
r 0.002790938 _39_ RTR  --- 0 AODV 44 [0 ffffffff 1c 800] ------- [28:255 -1:255 1 0] [0x1 1 [28 2] 4.000000] (HELLO)
r 0.002910623 _21_ RTR  --- 0 AODV 44 [0 ffffffff 2 800] ------- [2:255 -1:255 1 0] [0x1 1 [2 2] 4.000000] (HELLO)
r 0.003026653 _47_ RTR  --- 0 AODV 44 [0 ffffffff 28 800] ------- [40:255 -1:255 1 0] [0x1 1 [40 2] 4.000000] (HELLO)
r 0.003026744 _46_ RTR  --- 0 AODV 44 [0 ffffffff 28 800] ------- [40:255 -1:255 1 0] [0x1 1 [40 2] 4.000000] (HELLO)
r 0.003026746 _45_ RTR  --- 0 AODV 44 [0 ffffffff 28 800] ------- [40:255 -1:255 1 0] [0x1 1 [40 2] 4.000000] (HELLO)
r 0.003260526 _20_ RTR  --- 0 AODV 44 [0 ffffffff b 800] ------- [11:255 -1:255 1 0] [0x1 1 [11 2] 4.000000] (HELLO)
r 0.003260586 _16_ RTR  --- 0 AODV 44 [0 ffffffff b 800] ------- [11:255 -1:255 1 0] [0x1 1 [11 2] 4.000000] (HELLO)
r 0.003260609 _3_ RTR  --- 0 AODV 44 [0 ffffffff b 800] ------- [11:255 -1:255 1 0] [0x1 1 [11 2] 4.000000] (HELLO)
r 0.003300598 _7_ RTR  --- 0 AODV 44 [0 ffffffff d 800] ------- [13:255 -1:255 1 0] [0x1 1 [13 2] 4.000000] (HELLO)
r 0.003370833 _17_ RTR  --- 0 AODV 44 [0 ffffffff 12 800] ------- [18:255 -1:255 1 0] [0x1 1 [18 2] 4.000000] (HELLO)
r 0.003370865 _19_ RTR  --- 0 AODV 44 [0 ffffffff 12 800] ------- [18:255 -1:255 1 0] [0x1 1 [18 2] 4.000000] (HELLO)
r 0.003500674 _35_ RTR  --- 0 AODV 44 [0 ffffffff 21 800] ------- [33:255 -1:255 1 0] [0x1 1 [33 2] 4.000000] (HELLO)
r 0.003500854 _44_ RTR  --- 0 AODV 44 [0 ffffffff 21 800] ------- [33:255 -1:255 1 0] [0x1 1 [33 2] 4.000000] (HELLO)
r 0.003504980 _26_ RTR  --- 0 AODV 44 [0 ffffffff 1b 800] ------- [27:255 -1:255 1 0] [0x1 1 [27 2] 4.000000] (HELLO)
r 0.003505180 _29_ RTR  --- 0 AODV 44 [0 ffffffff 1b 800] ------- [27:255 -1:255 1 0] [0x1 1 [27 2] 4.000000] (HELLO)
r 0.003505219 _28_ RTR  --- 0 AODV 44 [0 ffffffff 1b 800] ------- [27:255 -1:255 1 0] [0x1 1 [27 2] 4.000000] (HELLO)
r 0.003600846 _47_ RTR  --- 0 AODV 44 [0 ffffffff 2d 800] ------- [45:255 -1:255 1 0] [0x1 1 [45 2] 4.000000] (HELLO)
r 0.003600932 _49_ RTR  --- 0 AODV 44 [0 ffffffff 2d 800] ------- [45:255 -1:255 1 0] [0x1 1 [45 2] 4.000000] (HELLO)
r 0.003600936 _46_ RTR  --- 0 AODV 44 [0 ffffffff 2d 800] ------- [45:255 -1:255 1 0] [0x1 1 [45 2] 4.000000] (HELLO)
r 0.003600936 _40_ RTR  --- 0 AODV 44 [0 ffffffff 2d 800] ------- [45:255 -1:255 1 0] [0x1 1 [45 2] 4.000000] (HELLO)
r 0.003600938 _48_ RTR  --- 0 AODV 44 [0 ffffffff 2d 800] ------- [45:255 -1:255 1 0] [0x1 1 [45 2] 4.000000] (HELLO)
r 0.004054646 _20_ RTR  --- 0 AODV 44 [0 ffffffff 10 800] ------- [16:255 -1:255 1 0] [0x1 1 [16 2] 4.000000] (HELLO)
r 0.004054646 _11_ RTR  --- 0 AODV 44 [0 ffffffff 10 800] ------- [16:255 -1:255 1 0] [0x1 1 [16 2] 4.000000] (HELLO)
r 0.004054698 _8_ RTR  --- 0 AODV 44 [0 ffffffff 10 800] ------- [16:255 -1:255 1 0] [0x1 1 [16 2] 4.000000] (HELLO)
r 0.004054729 _3_ RTR  --- 0 AODV 44 [0 ffffffff 10 800] ------- [16:255 -1:255 1 0] [0x1 1 [16 2] 4.000000] (HELLO)
r 0.004054737 _9_ RTR  --- 0 AODV 44 [0 ffffffff 10 800] ------- [16:255 -1:255 1 0] [0x1 1 [16 2] 4.000000] (HELLO)
r 0.004054857 _4_ RTR  --- 0 AODV 44 [0 ffffffff 10 800] ------- [16:255 -1:255 1 0] [0x1 1 [16 2] 4.000000] (HELLO)
r 0.004054869 _22_ RTR  --- 0 AODV 44 [0 ffffffff 10 800] ------- [16:255 -1:255 1 0] [0x1 1 [16 2] 4.000000] (HELLO)
r 0.004054869 _25_ RTR  --- 0 AODV 44 [0 ffffffff 10 800] ------- [16:255 -1:255 1 0] [0x1 1 [16 2] 4.000000] (HELLO)
r 0.004054900 _5_ RTR  --- 0 AODV 44 [0 ffffffff 10 800] ------- [16:255 -1:255 1 0] [0x1 1 [16 2] 4.000000] (HELLO)
r 0.004174935 _49_ RTR  --- 0 AODV 44 [0 ffffffff 2f 800] ------- [47:255 -1:255 1 0] [0x1 1 [47 2] 4.000000] (HELLO)
r 0.004174943 _40_ RTR  --- 0 AODV 44 [0 ffffffff 2f 800] ------- [47:255 -1:255 1 0] [0x1 1 [47 2] 4.000000] (HELLO)
r 0.004174946 _45_ RTR  --- 0 AODV 44 [0 ffffffff 2f 800] ------- [47:255 -1:255 1 0] [0x1 1 [47 2] 4.000000] (HELLO)
r 0.004174976 _31_ RTR  --- 0 AODV 44 [0 ffffffff 2f 800] ------- [47:255 -1:255 1 0] [0x1 1 [47 2] 4.000000] (HELLO)
r 0.004175036 _46_ RTR  --- 0 AODV 44 [0 ffffffff 2f 800] ------- [47:255 -1:255 1 0] [0x1 1 [47 2] 4.000000] (HELLO)
r 0.004175107 _42_ RTR  --- 0 AODV 44 [0 ffffffff 2f 800] ------- [47:255 -1:255 1 0] [0x1 1 [47 2] 4.000000] (HELLO)
r 0.004175134 _48_ RTR  --- 0 AODV 44 [0 ffffffff 2f 800] ------- [47:255 -1:255 1 0] [0x1 1 [47 2] 4.000000] (HELLO)
r 0.004175166 _36_ RTR  --- 0 AODV 44 [0 ffffffff 2f 800] ------- [47:255 -1:255 1 0] [0x1 1 [47 2] 4.000000] (HELLO)
r 0.004428926 _1_ RTR  --- 0 AODV 44 [0 ffffffff e 800] ------- [14:255 -1:255 1 0] [0x1 1 [14 2] 4.000000] (HELLO)
r 0.004429007 _6_ RTR  --- 0 AODV 44 [0 ffffffff e 800] ------- [14:255 -1:255 1 0] [0x1 1 [14 2] 4.000000] (HELLO)
r 0.004429038 _7_ RTR  --- 0 AODV 44 [0 ffffffff e 800] ------- [14:255 -1:255 1 0] [0x1 1 [14 2] 4.000000] (HELLO)
r 0.004429039 _13_ RTR  --- 0 AODV 44 [0 ffffffff e 800] ------- [14:255 -1:255 1 0] [0x1 1 [14 2] 4.000000] (HELLO)
r 0.004429067 _12_ RTR  --- 0 AODV 44 [0 ffffffff e 800] ------- [14:255 -1:255 1 0] [0x1 1 [14 2] 4.000000] (HELLO)
r 0.004583344 _28_ RTR  --- 0 AODV 44 [0 ffffffff 25 800] ------- [37:255 -1:255 1 0] [0x1 1 [37 2] 4.000000] (HELLO)
r 0.004583351 _29_ RTR  --- 0 AODV 44 [0 ffffffff 25 800] ------- [37:255 -1:255 1 0] [0x1 1 [37 2] 4.000000] (HELLO)
r 0.004583513 _39_ RTR  --- 0 AODV 44 [0 ffffffff 25 800] ------- [37:255 -1:255 1 0] [0x1 1 [37 2] 4.000000] (HELLO)
r 0.004583545 _26_ RTR  --- 0 AODV 44 [0 ffffffff 25 800] ------- [37:255 -1:255 1 0] [0x1 1 [37 2] 4.000000] (HELLO)
r 0.004583552 _38_ RTR  --- 0 AODV 44 [0 ffffffff 25 800] ------- [37:255 -1:255 1 0] [0x1 1 [37 2] 4.000000] (HELLO)
r 0.004648813 _11_ RTR  --- 0 AODV 44 [0 ffffffff 3 800] ------- [3:255 -1:255 1 0] [0x1 1 [3 2] 4.000000] (HELLO)
r 0.004648813 _20_ RTR  --- 0 AODV 44 [0 ffffffff 3 800] ------- [3:255 -1:255 1 0] [0x1 1 [3 2] 4.000000] (HELLO)
r 0.004648860 _4_ RTR  --- 0 AODV 44 [0 ffffffff 3 800] ------- [3:255 -1:255 1 0] [0x1 1 [3 2] 4.000000] (HELLO)
r 0.004648878 _9_ RTR  --- 0 AODV 44 [0 ffffffff 3 800] ------- [3:255 -1:255 1 0] [0x1 1 [3 2] 4.000000] (HELLO)
r 0.004648901 _5_ RTR  --- 0 AODV 44 [0 ffffffff 3 800] ------- [3:255 -1:255 1 0] [0x1 1 [3 2] 4.000000] (HELLO)
r 0.004648940 _10_ RTR  --- 0 AODV 44 [0 ffffffff 3 800] ------- [3:255 -1:255 1 0] [0x1 1 [3 2] 4.000000] (HELLO)
r 0.004649051 _21_ RTR  --- 0 AODV 44 [0 ffffffff 3 800] ------- [3:255 -1:255 1 0] [0x1 1 [3 2] 4.000000] (HELLO)
r 0.004689141 _24_ RTR  --- 0 AODV 44 [0 ffffffff 16 800] ------- [22:255 -1:255 1 0] [0x1 1 [22 2] 4.000000] (HELLO)
r 0.004689159 _23_ RTR  --- 0 AODV 44 [0 ffffffff 16 800] ------- [22:255 -1:255 1 0] [0x1 1 [22 2] 4.000000] (HELLO)
r 0.004689161 _25_ RTR  --- 0 AODV 44 [0 ffffffff 16 800] ------- [22:255 -1:255 1 0] [0x1 1 [22 2] 4.000000] (HELLO)
r 0.004909264 _43_ RTR  --- 0 AODV 44 [0 ffffffff 2a 800] ------- [42:255 -1:255 1 0] [0x1 1 [42 2] 4.000000] (HELLO)
r 0.004909277 _44_ RTR  --- 0 AODV 44 [0 ffffffff 2a 800] ------- [42:255 -1:255 1 0] [0x1 1 [42 2] 4.000000] (HELLO)
r 0.004909340 _48_ RTR  --- 0 AODV 44 [0 ffffffff 2a 800] ------- [42:255 -1:255 1 0] [0x1 1 [42 2] 4.000000] (HELLO)
r 0.004909340 _45_ RTR  --- 0 AODV 44 [0 ffffffff 2a 800] ------- [42:255 -1:255 1 0] [0x1 1 [42 2] 4.000000] (HELLO)
r 0.004909347 _31_ RTR  --- 0 AODV 44 [0 ffffffff 2a 800] ------- [42:255 -1:255 1 0] [0x1 1 [42 2] 4.000000] (HELLO)
r 0.004909347 _41_ RTR  --- 0 AODV 44 [0 ffffffff 2a 800] ------- [42:255 -1:255 1 0] [0x1 1 [42 2] 4.000000] (HELLO)
r 0.004909367 _47_ RTR  --- 0 AODV 44 [0 ffffffff 2a 800] ------- [42:255 -1:255 1 0] [0x1 1 [42 2] 4.000000] (HELLO)
r 0.004909389 _49_ RTR  --- 0 AODV 44 [0 ffffffff 2a 800] ------- [42:255 -1:255 1 0] [0x1 1 [42 2] 4.000000] (HELLO)
r 0.004909390 _33_ RTR  --- 0 AODV 44 [0 ffffffff 2a 800] ------- [42:255 -1:255 1 0] [0x1 1 [42 2] 4.000000] (HELLO)
r 0.005322931 _15_ RTR  --- 0 AODV 44 [0 ffffffff 9 800] ------- [9:255 -1:255 1 0] [0x1 1 [9 2] 4.000000] (HELLO)
r 0.005323013 _11_ RTR  --- 0 AODV 44 [0 ffffffff 9 800] ------- [9:255 -1:255 1 0] [0x1 1 [9 2] 4.000000] (HELLO)
r 0.005323013 _20_ RTR  --- 0 AODV 44 [0 ffffffff 9 800] ------- [9:255 -1:255 1 0] [0x1 1 [9 2] 4.000000] (HELLO)
r 0.005323027 _3_ RTR  --- 0 AODV 44 [0 ffffffff 9 800] ------- [9:255 -1:255 1 0] [0x1 1 [9 2] 4.000000] (HELLO)
r 0.005323029 _16_ RTR  --- 0 AODV 44 [0 ffffffff 9 800] ------- [9:255 -1:255 1 0] [0x1 1 [9 2] 4.000000] (HELLO)
r 0.005323095 _8_ RTR  --- 0 AODV 44 [0 ffffffff 9 800] ------- [9:255 -1:255 1 0] [0x1 1 [9 2] 4.000000] (HELLO)
r 0.005323098 _4_ RTR  --- 0 AODV 44 [0 ffffffff 9 800] ------- [9:255 -1:255 1 0] [0x1 1 [9 2] 4.000000] (HELLO)
r 0.005323105 _0_ RTR  --- 0 AODV 44 [0 ffffffff 9 800] ------- [9:255 -1:255 1 0] [0x1 1 [9 2] 4.000000] (HELLO)
r 0.005323119 _10_ RTR  --- 0 AODV 44 [0 ffffffff 9 800] ------- [9:255 -1:255 1 0] [0x1 1 [9 2] 4.000000] (HELLO)
r 0.005323119 _6_ RTR  --- 0 AODV 44 [0 ffffffff 9 800] ------- [9:255 -1:255 1 0] [0x1 1 [9 2] 4.000000] (HELLO)
r 0.005323126 _12_ RTR  --- 0 AODV 44 [0 ffffffff 9 800] ------- [9:255 -1:255 1 0] [0x1 1 [9 2] 4.000000] (HELLO)
r 0.005323162 _5_ RTR  --- 0 AODV 44 [0 ffffffff 9 800] ------- [9:255 -1:255 1 0] [0x1 1 [9 2] 4.000000] (HELLO)
r 0.005323162 _1_ RTR  --- 0 AODV 44 [0 ffffffff 9 800] ------- [9:255 -1:255 1 0] [0x1 1 [9 2] 4.000000] (HELLO)
r 0.005916984 _9_ RTR  --- 0 AODV 44 [0 ffffffff f 800] ------- [15:255 -1:255 1 0] [0x1 1 [15 2] 4.000000] (HELLO)
r 0.005917105 _0_ RTR  --- 0 AODV 44 [0 ffffffff f 800] ------- [15:255 -1:255 1 0] [0x1 1 [15 2] 4.000000] (HELLO)
r 0.005917108 _11_ RTR  --- 0 AODV 44 [0 ffffffff f 800] ------- [15:255 -1:255 1 0] [0x1 1 [15 2] 4.000000] (HELLO)
r 0.005917108 _20_ RTR  --- 0 AODV 44 [0 ffffffff f 800] ------- [15:255 -1:255 1 0] [0x1 1 [15 2] 4.000000] (HELLO)
r 0.005917111 _16_ RTR  --- 0 AODV 44 [0 ffffffff f 800] ------- [15:255 -1:255 1 0] [0x1 1 [15 2] 4.000000] (HELLO)
r 0.005917133 _6_ RTR  --- 0 AODV 44 [0 ffffffff f 800] ------- [15:255 -1:255 1 0] [0x1 1 [15 2] 4.000000] (HELLO)
r 0.005917133 _3_ RTR  --- 0 AODV 44 [0 ffffffff f 800] ------- [15:255 -1:255 1 0] [0x1 1 [15 2] 4.000000] (HELLO)
r 0.005917150 _12_ RTR  --- 0 AODV 44 [0 ffffffff f 800] ------- [15:255 -1:255 1 0] [0x1 1 [15 2] 4.000000] (HELLO)
r 0.005917150 _8_ RTR  --- 0 AODV 44 [0 ffffffff f 800] ------- [15:255 -1:255 1 0] [0x1 1 [15 2] 4.000000] (HELLO)
r 0.005917167 _1_ RTR  --- 0 AODV 44 [0 ffffffff f 800] ------- [15:255 -1:255 1 0] [0x1 1 [15 2] 4.000000] (HELLO)
r 0.005917198 _4_ RTR  --- 0 AODV 44 [0 ffffffff f 800] ------- [15:255 -1:255 1 0] [0x1 1 [15 2] 4.000000] (HELLO)
r 0.005917207 _10_ RTR  --- 0 AODV 44 [0 ffffffff f 800] ------- [15:255 -1:255 1 0] [0x1 1 [15 2] 4.000000] (HELLO)
r 0.005917233 _18_ RTR  --- 0 AODV 44 [0 ffffffff f 800] ------- [15:255 -1:255 1 0] [0x1 1 [15 2] 4.000000] (HELLO)
r 0.006511308 _4_ RTR  --- 0 AODV 44 [0 ffffffff a 800] ------- [10:255 -1:255 1 0] [0x1 1 [10 2] 4.000000] (HELLO)
r 0.006511319 _21_ RTR  --- 0 AODV 44 [0 ffffffff a 800] ------- [10:255 -1:255 1 0] [0x1 1 [10 2] 4.000000] (HELLO)
r 0.006511350 _5_ RTR  --- 0 AODV 44 [0 ffffffff a 800] ------- [10:255 -1:255 1 0] [0x1 1 [10 2] 4.000000] (HELLO)
r 0.006511381 _2_ RTR  --- 0 AODV 44 [0 ffffffff a 800] ------- [10:255 -1:255 1 0] [0x1 1 [10 2] 4.000000] (HELLO)
r 0.006511418 _3_ RTR  --- 0 AODV 44 [0 ffffffff a 800] ------- [10:255 -1:255 1 0] [0x1 1 [10 2] 4.000000] (HELLO)
r 0.006891222 _1_ RTR  --- 0 AODV 44 [0 ffffffff 0 800] ------- [0:255 -1:255 1 0] [0x1 1 [0 2] 4.000000] (HELLO)
r 0.006891262 _18_ RTR  --- 0 AODV 44 [0 ffffffff 0 800] ------- [0:255 -1:255 1 0] [0x1 1 [0 2] 4.000000] (HELLO)
r 0.006891269 _14_ RTR  --- 0 AODV 44 [0 ffffffff 0 800] ------- [0:255 -1:255 1 0] [0x1 1 [0 2] 4.000000] (HELLO)
r 0.006891389 _13_ RTR  --- 0 AODV 44 [0 ffffffff 0 800] ------- [0:255 -1:255 1 0] [0x1 1 [0 2] 4.000000] (HELLO)
r 0.006891403 _8_ RTR  --- 0 AODV 44 [0 ffffffff 0 800] ------- [0:255 -1:255 1 0] [0x1 1 [0 2] 4.000000] (HELLO)
r 0.006891406 _17_ RTR  --- 0 AODV 44 [0 ffffffff 0 800] ------- [0:255 -1:255 1 0] [0x1 1 [0 2] 4.000000] (HELLO)
r 0.006891434 _7_ RTR  --- 0 AODV 44 [0 ffffffff 0 800] ------- [0:255 -1:255 1 0] [0x1 1 [0 2] 4.000000] (HELLO)
s 0.750169789 _0_ RTR  --- 0 AODV 44 [0 0 0 0] ------- [0:255 -1:255 1 0] [0x1 1 [0 8] 4.000000] (HELLO)
r 0.751133905 _1_ RTR  --- 0 AODV 44 [0 ffffffff 0 800] ------- [0:255 -1:255 1 0] [0x1 1 [0 8] 4.000000] (HELLO)
r 0.751133946 _6_ RTR  --- 0 AODV 44 [0 ffffffff 0 800] ------- [0:255 -1:255 1 0] [0x1 1 [0 8] 4.000000] (HELLO)
r 0.751133946 _18_ RTR  --- 0 AODV 44 [0 ffffffff 0 800] ------- [0:255 -1:255 1 0] [0x1 1 [0 8] 4.000000] (HELLO)
r 0.751133953 _14_ RTR  --- 0 AODV 44 [0 ffffffff 0 800] ------- [0:255 -1:255 1 0] [0x1 1 [0 8] 4.000000] (HELLO)
r 0.751133963 _15_ RTR  --- 0 AODV 44 [0 ffffffff 0 800] ------- [0:255 -1:255 1 0] [0x1 1 [0 8] 4.000000] (HELLO)
r 0.751134002 _12_ RTR  --- 0 AODV 44 [0 ffffffff 0 800] ------- [0:255 -1:255 1 0] [0x1 1 [0 8] 4.000000] (HELLO)
r 0.751134015 _9_ RTR  --- 0 AODV 44 [0 ffffffff 0 800] ------- [0:255 -1:255 1 0] [0x1 1 [0 8] 4.000000] (HELLO)
r 0.751134072 _13_ RTR  --- 0 AODV 44 [0 ffffffff 0 800] ------- [0:255 -1:255 1 0] [0x1 1 [0 8] 4.000000] (HELLO)
r 0.751134087 _8_ RTR  --- 0 AODV 44 [0 ffffffff 0 800] ------- [0:255 -1:255 1 0] [0x1 1 [0 8] 4.000000] (HELLO)
r 0.751134089 _17_ RTR  --- 0 AODV 44 [0 ffffffff 0 800] ------- [0:255 -1:255 1 0] [0x1 1 [0 8] 4.000000] (HELLO)
r 0.751134107 _16_ RTR  --- 0 AODV 44 [0 ffffffff 0 800] ------- [0:255 -1:255 1 0] [0x1 1 [0 8] 4.000000] (HELLO)
r 0.751134118 _7_ RTR  --- 0 AODV 44 [0 ffffffff 0 800] ------- [0:255 -1:255 1 0] [0x1 1 [0 8] 4.000000] (HELLO)
s 0.755404169 _44_ RTR  --- 0 AODV 44 [0 0 0 0] ------- [44:255 -1:255 1 0] [0x1 1 [44 10] 4.000000] (HELLO)
r 0.756608229 _43_ RTR  --- 0 AODV 44 [0 ffffffff 2c 800] ------- [44:255 -1:255 1 0] [0x1 1 [44 10] 4.000000] (HELLO)
r 0.756608275 _41_ RTR  --- 0 AODV 44 [0 ffffffff 2c 800] ------- [44:255 -1:255 1 0] [0x1 1 [44 10] 4.000000] (HELLO)
r 0.756608339 _42_ RTR  --- 0 AODV 44 [0 ffffffff 2c 800] ------- [44:255 -1:255 1 0] [0x1 1 [44 10] 4.000000] (HELLO)
r 0.756608454 _33_ RTR  --- 0 AODV 44 [0 ffffffff 2c 800] ------- [44:255 -1:255 1 0] [0x1 1 [44 10] 4.000000] (HELLO)
s 0.757102330 _2_ RTR  --- 0 AODV 44 [0 0 0 0] ------- [2:255 -1:255 1 0] [0x1 1 [2 6] 4.000000] (HELLO)
r 0.758246397 _21_ RTR  --- 0 AODV 44 [0 ffffffff 2 800] ------- [2:255 -1:255 1 0] [0x1 1 [2 6] 4.000000] (HELLO)
r 0.758246504 _10_ RTR  --- 0 AODV 44 [0 ffffffff 2 800] ------- [2:255 -1:255 1 0] [0x1 1 [2 6] 4.000000] (HELLO)
r 0.758246599 _4_ RTR  --- 0 AODV 44 [0 ffffffff 2 800] ------- [2:255 -1:255 1 0] [0x1 1 [2 6] 4.000000] (HELLO)
r 0.758246616 _5_ RTR  --- 0 AODV 44 [0 ffffffff 2 800] ------- [2:255 -1:255 1 0] [0x1 1 [2 6] 4.000000] (HELLO)
s 0.771397279 _13_ RTR  --- 0 AODV 44 [0 0 0 0] ------- [13:255 -1:255 1 0] [0x1 1 [13 14] 4.000000] (HELLO)
r 0.772361367 _7_ RTR  --- 0 AODV 44 [0 ffffffff d 800] ------- [13:255 -1:255 1 0] [0x1 1 [13 14] 4.000000] (HELLO)
r 0.772361446 _1_ RTR  --- 0 AODV 44 [0 ffffffff d 800] ------- [13:255 -1:255 1 0] [0x1 1 [13 14] 4.000000] (HELLO)
r 0.772361459 _6_ RTR  --- 0 AODV 44 [0 ffffffff d 800] ------- [13:255 -1:255 1 0] [0x1 1 [13 14] 4.000000] (HELLO)
r 0.772361469 _12_ RTR  --- 0 AODV 44 [0 ffffffff d 800] ------- [13:255 -1:255 1 0] [0x1 1 [13 14] 4.000000] (HELLO)