n -t * -s 0  -x 36 -y 529 -Z 0 -z 70  -v circle -c black
n -t * -s 1  -x 143 -y 666 -Z 0 -z 70  -v circle -c black
n -t * -s 2  -x 201 -y 552 -Z 0 -z 40  -v circle -c black
n -t * -s 3  -x 147 -y 403 -Z 0 -z 70  -v circle -c black
n -t * -s 4  -x 230 -y 291 -Z 0 -z 70  -v circle -c black
n -t * -s 5  -x 295 -y 419 -Z 0 -z 70  -v circle -c black
n -t * -s 6  -x 363 -y 335 -Z 0 -z 70  -v circle -c black
n -t * -s 7  -x 334 -y 647 -Z 0 -z 70  -v circle -c black
n -t * -s 8  -x 304 -y 777 -Z 0 -z 70  -v circle -c black
n -t * -s 9  -x 412 -y 194 -Z 0 -z 70  -v circle -c black
n -t * -s 10  -x 519 -y 361 -Z 0 -z 70  -v circle -c black
n -t * -s 11  -x 569 -y 167 -Z 0 -z 70  -v circle -c black
n -t * -s 12  -x 349 -y 546 -Z 0 -z 70  -v circle -c black
n -t * -s 13  -x 466 -y 668 -Z 0 -z 70  -v circle -c black
n -t * -s 14  -x 489 -y 794 -Z 0 -z 70  -v circle -c black
n -t * -s 15  -x 606 -y 711 -Z 0 -z 70  -v circle -c black
n -t * -s 16  -x 630 -y 626 -Z 0 -z 70  -v circle -c black
n -t * -s 17  -x 666 -y 347 -Z 0 -z 70  -v circle -c black
n -t * -s 18  -x 741 -y 152 -Z 0 -z 70  -v circle -c black
n -t * -s 19  -x 882 -y 264 -Z 0 -z 70  -v circle -c black
n -t * -s 20  -x 761 -y 441 -Z 0 -z 70  -v circle -c black
V -t * -v 1.0a5 -a 0
W -t * -x 1800 -y 840
A -t * -n 1 -p 0 -o 0x7fffffff -c 30 -a 1
A -t * -h 1 -m 1073741823 -s 0
n -t 0 -s 0 -S DLABEL -l "node2" -L ""
n -t 0 -s 1 -S DLABEL -l "node3" -L ""
n -t 0 -s 2 -S DLABEL -l "node4" -L ""
n -t 0 -s 3 -S DLABEL -l "node5" -L ""
n -t 0 -s 4 -S DLABEL -l "node6" -L ""
n -t 0 -s 5 -S DLABEL -l "node7" -L ""
n -t 0 -s 6 -S DLABEL -l "node8" -L ""
n -t 0 -s 7 -S DLABEL -l "node9" -L ""
n -t 0 -s 8 -S DLABEL -l "node10" -L ""
n -t 0 -s 9 -S DLABEL -l "node11" -L ""
n -t 0 -s 10 -S DLABEL -l "node12" -L ""
n -t 0 -s 11 -S DLABEL -l "node13" -L ""
n -t 0 -s 12 -S DLABEL -l "node14" -L ""
n -t 0 -s 13 -S DLABEL -l "node15" -L ""
n -t 0 -s 14 -S DLABEL -l "node16" -L ""
n -t 0 -s 15 -S DLABEL -l "node17" -L ""
n -t 0 -s 16 -S DLABEL -l "node18" -L ""
n -t 0 -s 17 -S DLABEL -l "node19" -L ""
n -t 0 -s 18 -S DLABEL -l "node20" -L ""
n -t 0 -s 19 -S DLABEL -l "node21" -L ""
n -t 0 -s 20 -S DLABEL -l "node22" -L ""
n -t 0 -s 0 -S COLOR -c green -o blue -i green -I blue
n -t 0 -s 1 -S COLOR -c green -o green -i green -I green
n -t 0 -s 2 -S COLOR -c green -o green -i green -I green
n -t 0 -s 3 -S COLOR -c green -o blue -i green -I blue
n -t 0 -s 4 -S COLOR -c green -o green -i green -I green
n -t 0 -s 5 -S COLOR -c green -o green -i green -I green
n -t 0 -s 6 -S COLOR -c green -o green -i green -I green
n -t 0 -s 7 -S COLOR -c yellow -o maroon -i yellow -I maroon
n -t 0 -s 8 -S COLOR -c yellow -o yellow -i yellow -I yellow
n -t 0 -s 9 -S COLOR -c yellow -o yellow -i yellow -I yellow
n -t 0 -s 10 -S COLOR -c pink -o blue -i pink -I blue
n -t 0 -s 11 -S COLOR -c pink -o pink -i pink -I pink
n -t 0 -s 12 -S COLOR -c pink -o pink -i pink -I pink
n -t 0 -s 13 -S COLOR -c pink -o pink -i pink -I pink
n -t 0 -s 14 -S COLOR -c pink -o blue -i pink -I blue
n -t 0 -s 15 -S COLOR -c orange -o orange -i orange -I orange
n -t 0 -s 16 -S COLOR -c orange -o orange -i orange -I orange
n -t 0 -s 17 -S COLOR -c orange -o orange -i orange -I orange
n -t 0 -s 18 -S COLOR -c orange -o orange -i orange -I orange
n -t 0 -s 19 -S COLOR -c orange -o orange -i orange -I orange
n -t 0 -s 20 -S COLOR -c orange -o orange -i orange -I orange
v -t 0 set_rate_ext 0.012500000000000001 1
v -t 0 -e sim_annotation 0 1 MOBILE NODE MOVEMENTS
+ -t 0.000000000 -s 0 -d -1 -p AODV -e 44 -c 2 -a 0 -i 0 -k RTR 
- -t 0.000000000 -s 0 -d -1 -p AODV -e 44 -c 2 -a 0 -i 0 -k RTR
h -t 0.000000000 -s 0 -d -1 -p AODV -e 44 -c 2 -a 0 -i 0 -k RTR
+ -t 0.000000000 -s 1 -d -1 -p AODV -e 44 -c 2 -a 0 -i 0 -k RTR 
- -t 0.000000000 -s 1 -d -1 -p AODV -e 44 -c 2 -a 0 -i 0 -k RTR
h -t 0.000000000 -s 1 -d -1 -p AODV -e 44 -c 2 -a 0 -i 0 -k RTR
+ -t 0.000000000 -s 2 -d -1 -p AODV -e 44 -c 2 -a 0 -i 0 -k RTR 
- -t 0.000000000 -s 2 -d -1 -p AODV -e 44 -c 2 -a 0 -i 0 -k RTR
h -t 0.000000000 -s 2 -d -1 -p AODV -e 44 -c 2 -a 0 -i 0 -k RTR
+ -t 0.000000000 -s 3 -d -1 -p AODV -e 44 -c 2 -a 0 -i 0 -k RTR 
- -t 0.000000000 -s 3 -d -1 -p AODV -e 44 -c 2 -a 0 -i 0 -k RTR
h -t 0.000000000 -s 3 -d -1 -p AODV -e 44 -c 2 -a 0 -i 0 -k RTR
+ -t 0.000000000 -s 4 -d -1 -p AODV -e 44 -c 2 -a 0 -i 0 -k RTR 
- -t 0.000000000 -s 4 -d -1 -p AODV -e 44 -c 2 -a 0 -i 0 -k RTR
h -t 0.000000000 -s 4 -d -1 -p AODV -e 44 -c 2 -a 0 -i 0 -k RTR
+ -t 0.000000000 -s 5 -d -1 -p AODV -e 44 -c 2 -a 0 -i 0 -k RTR 
- -t 0.000000000 -s 5 -d -1 -p AODV -e 44 -c 2 -a 0 -i 0 -k RTR
h -t 0.000000000 -s 5 -d -1 -p AODV -e 44 -c 2 -a 0 -i 0 -k RTR
+ -t 0.000000000 -s 6 -d -1 -p AODV -e 44 -c 2 -a 0 -i 0 -k RTR 
- -t 0.000000000 -s 6 -d -1 -p AODV -e 44 -c 2 -a 0 -i 0 -k RTR
h -t 0.000000000 -s 6 -d -1 -p AODV -e 44 -c 2 -a 0 -i 0 -k RTR
+ -t 0.000000000 -s 7 -d -1 -p AODV -e 44 -c 2 -a 0 -i 0 -k RTR 
- -t 0.000000000 -s 7 -d -1 -p AODV -e 44 -c 2 -a 0 -i 0 -k RTR
h -t 0.000000000 -s 7 -d -1 -p AODV -e 44 -c 2 -a 0 -i 0 -k RTR
+ -t 0.000000000 -s 8 -d -1 -p AODV -e 44 -c 2 -a 0 -i 0 -k RTR 
- -t 0.000000000 -s 8 -d -1 -p AODV -e 44 -c 2 -a 0 -i 0 -k RTR
h -t 0.000000000 -s 8 -d -1 -p AODV -e 44 -c 2 -a 0 -i 0 -k RTR
+ -t 0.000000000 -s 9 -d -1 -p AODV -e 44 -c 2 -a 0 -i 0 -k RTR 
- -t 0.000000000 -s 9 -d -1 -p AODV -e 44 -c 2 -a 0 -i 0 -k RTR
h -t 0.000000000 -s 9 -d -1 -p AODV -e 44 -c 2 -a 0 -i 0 -k RTR
+ -t 0.000000000 -s 10 -d -1 -p AODV -e 44 -c 2 -a 0 -i 0 -k RTR 
- -t 0.000000000 -s 10 -d -1 -p AODV -e 44 -c 2 -a 0 -i 0 -k RTR
h -t 0.000000000 -s 10 -d -1 -p AODV -e 44 -c 2 -a 0 -i 0 -k RTR
+ -t 0.000000000 -s 11 -d -1 -p AODV -e 44 -c 2 -a 0 -i 0 -k RTR 
- -t 0.000000000 -s 11 -d -1 -p AODV -e 44 -c 2 -a 0 -i 0 -k RTR
h -t 0.000000000 -s 11 -d -1 -p AODV -e 44 -c 2 -a 0 -i 0 -k RTR
+ -t 0.000000000 -s 12 -d -1 -p AODV -e 44 -c 2 -a 0 -i 0 -k RTR 
- -t 0.000000000 -s 12 -d -1 -p AODV -e 44 -c 2 -a 0 -i 0 -k RTR
h -t 0.000000000 -s 12 -d -1 -p AODV -e 44 -c 2 -a 0 -i 0 -k RTR
+ -t 0.000000000 -s 13 -d -1 -p AODV -e 44 -c 2 -a 0 -i 0 -k RTR 
- -t 0.000000000 -s 13 -d -1 -p AODV -e 44 -c 2 -a 0 -i 0 -k RTR
h -t 0.000000000 -s 13 -d -1 -p AODV -e 44 -c 2 -a 0 -i 0 -k RTR
+ -t 0.000000000 -s 14 -d -1 -p AODV -e 44 -c 2 -a 0 -i 0 -k RTR 
- -t 0.000000000 -s 14 -d -1 -p AODV -e 44 -c 2 -a 0 -i 0 -k RTR
h -t 0.000000000 -s 14 -d -1 -p AODV -e 44 -c 2 -a 0 -i 0 -k RTR
+ -t 0.000000000 -s 15 -d -1 -p AODV -e 44 -c 2 -a 0 -i 0 -k RTR 
- -t 0.000000000 -s 15 -d -1 -p AODV -e 44 -c 2 -a 0 -i 0 -k RTR
h -t 0.000000000 -s 15 -d -1 -p AODV -e 44 -c 2 -a 0 -i 0 -k RTR
+ -t 0.000000000 -s 16 -d -1 -p AODV -e 44 -c 2 -a 0 -i 0 -k RTR 
- -t 0.000000000 -s 16 -d -1 -p AODV -e 44 -c 2 -a 0 -i 0 -k RTR
h -t 0.000000000 -s 16 -d -1 -p AODV -e 44 -c 2 -a 0 -i 0 -k RTR
+ -t 0.000000000 -s 17 -d -1 -p AODV -e 44 -c 2 -a 0 -i 0 -k RTR 
- -t 0.000000000 -s 17 -d -1 -p AODV -e 44 -c 2 -a 0 -i 0 -k RTR
h -t 0.000000000 -s 17 -d -1 -p AODV -e 44 -c 2 -a 0 -i 0 -k RTR
+ -t 0.000000000 -s 18 -d -1 -p AODV -e 44 -c 2 -a 0 -i 0 -k RTR 
- -t 0.000000000 -s 18 -d -1 -p AODV -e 44 -c 2 -a 0 -i 0 -k RTR
h -t 0.000000000 -s 18 -d -1 -p AODV -e 44 -c 2 -a 0 -i 0 -k RTR
+ -t 0.000000000 -s 19 -d -1 -p AODV -e 44 -c 2 -a 0 -i 0 -k RTR 
- -t 0.000000000 -s 19 -d -1 -p AODV -e 44 -c 2 -a 0 -i 0 -k RTR
h -t 0.000000000 -s 19 -d -1 -p AODV -e 44 -c 2 -a 0 -i 0 -k RTR
+ -t 0.000000000 -s 20 -d -1 -p AODV -e 44 -c 2 -a 0 -i 0 -k RTR 
- -t 0.000000000 -s 20 -d -1 -p AODV -e 44 -c 2 -a 0 -i 0 -k RTR
h -t 0.000000000 -s 20 -d -1 -p AODV -e 44 -c 2 -a 0 -i 0 -k RTR
+ -t 0.000095000 -s 1 -d -1 -p AODV -e 102 -c 2 -a 0 -i 0 -k MAC 
- -t 0.000095000 -s 1 -d -1 -p AODV -e 102 -c 2 -a 0 -i 0 -k MAC
h -t 0.000095000 -s 1 -d -1 -p AODV -e 102 -c 2 -a 0 -i 0 -k MAC
+ -t 0.000095000 -s 5 -d -1 -p AODV -e 102 -c 2 -a 0 -i 0 -k MAC 
- -t 0.000095000 -s 5 -d -1 -p AODV -e 102 -c 2 -a 0 -i 0 -k MAC
h -t 0.000095000 -s 5 -d -1 -p AODV -e 102 -c 2 -a 0 -i 0 -k MAC
+ -t 0.000095000 -s 8 -d -1 -p AODV -e 102 -c 2 -a 0 -i 0 -k MAC 
- -t 0.000095000 -s 8 -d -1 -p AODV -e 102 -c 2 -a 0 -i 0 -k MAC
h -t 0.000095000 -s 8 -d -1 -p AODV -e 102 -c 2 -a 0 -i 0 -k MAC
+ -t 0.000095000 -s 16 -d -1 -p AODV -e 102 -c 2 -a 0 -i 0 -k MAC 
- -t 0.000095000 -s 16 -d -1 -p AODV -e 102 -c 2 -a 0 -i 0 -k MAC
h -t 0.000095000 -s 16 -d -1 -p AODV -e 102 -c 2 -a 0 -i 0 -k MAC
+ -t 0.000155000 -s 0 -d -1 -p AODV -e 102 -c 2 -a 0 -i 0 -k MAC 
- -t 0.000155000 -s 0 -d -1 -p AODV -e 102 -c 2 -a 0 -i 0 -k MAC
h -t 0.000155000 -s 0 -d -1 -p AODV -e 102 -c 2 -a 0 -i 0 -k MAC
+ -t 0.000175000 -s 19 -d -1 -p AODV -e 102 -c 2 -a 0 -i 0 -k MAC 
- -t 0.000175000 -s 19 -d -1 -p AODV -e 102 -c 2 -a 0 -i 0 -k MAC
h -t 0.000175000 -s 19 -d -1 -p AODV -e 102 -c 2 -a 0 -i 0 -k MAC
+ -t 0.000275000 -s 14 -d -1 -p AODV -e 102 -c 2 -a 0 -i 0 -k MAC 
- -t 0.000275000 -s 14 -d -1 -p AODV -e 102 -c 2 -a 0 -i 0 -k MAC
h -t 0.000275000 -s 14 -d -1 -p AODV -e 102 -c 2 -a 0 -i 0 -k MAC
+ -t 0.000375000 -s 3 -d -1 -p AODV -e 102 -c 2 -a 0 -i 0 -k MAC 
- -t 0.000375000 -s 3 -d -1 -p AODV -e 102 -c 2 -a 0 -i 0 -k MAC
h -t 0.000375000 -s 3 -d -1 -p AODV -e 102 -c 2 -a 0 -i 0 -k MAC
+ -t 0.000395000 -s 11 -d -1 -p AODV -e 102 -c 2 -a 0 -i 0 -k MAC 
- -t 0.000395000 -s 11 -d -1 -p AODV -e 102 -c 2 -a 0 -i 0 -k MAC
h -t 0.000395000 -s 11 -d -1 -p AODV -e 102 -c 2 -a 0 -i 0 -k MAC
+ -t 0.000415000 -s 18 -d -1 -p AODV -e 102 -c 2 -a 0 -i 0 -k MAC 
- -t 0.000415000 -s 18 -d -1 -p AODV -e 102 -c 2 -a 0 -i 0 -k MAC
h -t 0.000415000 -s 18 -d -1 -p AODV -e 102 -c 2 -a 0 -i 0 -k MAC
+ -t 0.000475000 -s 9 -d -1 -p AODV -e 102 -c 2 -a 0 -i 0 -k MAC 
- -t 0.000475000 -s 9 -d -1 -p AODV -e 102 -c 2 -a 0 -i 0 -k MAC
h -t 0.000475000 -s 9 -d -1 -p AODV -e 102 -c 2 -a 0 -i 0 -k MAC
+ -t 0.000495000 -s 4 -d -1 -p AODV -e 102 -c 2 -a 0 -i 0 -k MAC 
- -t 0.000495000 -s 4 -d -1 -p AODV -e 102 -c 2 -a 0 -i 0 -k MAC
h -t 0.000495000 -s 4 -d -1 -p AODV -e 102 -c 2 -a 0 -i 0 -k MAC
+ -t 0.000495000 -s 12 -d -1 -p AODV -e 102 -c 2 -a 0 -i 0 -k MAC 
- -t 0.000495000 -s 12 -d -1 -p AODV -e 102 -c 2 -a 0 -i 0 -k MAC
h -t 0.000495000 -s 12 -d -1 -p AODV -e 102 -c 2 -a 0 -i 0 -k MAC
+ -t 0.000555000 -s 13 -d -1 -p AODV -e 102 -c 2 -a 0 -i 0 -k MAC 
- -t 0.000555000 -s 13 -d -1 -p AODV -e 102 -c 2 -a 0 -i 0 -k MAC
h -t 0.000555000 -s 13 -d -1 -p AODV -e 102 -c 2 -a 0 -i 0 -k MAC
+ -t 0.000575000 -s 2 -d -1 -p AODV -e 102 -c 2 -a 0 -i 0 -k MAC 
- -t 0.000575000 -s 2 -d -1 -p AODV -e 102 -c 2 -a 0 -i 0 -k MAC
h -t 0.000575000 -s 2 -d -1 -p AODV -e 102 -c 2 -a 0 -i 0 -k MAC
+ -t 0.000575000 -s 10 -d -1 -p AODV -e 102 -c 2 -a 0 -i 0 -k MAC 
- -t 0.000575000 -s 10 -d -1 -p AODV -e 102 -c 2 -a 0 -i 0 -k MAC
h -t 0.000575000 -s 10 -d -1 -p AODV -e 102 -c 2 -a 0 -i 0 -k MAC
+ -t 0.000595000 -s 6 -d -1 -p AODV -e 102 -c 2 -a 0 -i 0 -k MAC 
- -t 0.000595000 -s 6 -d -1 -p AODV -e 102 -c 2 -a 0 -i 0 -k MAC
h -t 0.000595000 -s 6 -d -1 -p AODV -e 102 -c 2 -a 0 -i 0 -k MAC
r -t 0.000599294 -s 15 -d -1 -p AODV -e 44 -c 2 -a 0 -i 0 -k MAC
+ -t 0.000615000 -s 20 -d -1 -p AODV -e 102 -c 2 -a 0 -i 0 -k MAC 
- -t 0.000615000 -s 20 -d -1 -p AODV -e 102 -c 2 -a 0 -i 0 -k MAC
h -t 0.000615000 -s 20 -d -1 -p AODV -e 102 -c 2 -a 0 -i 0 -k MAC
r -t 0.000624294 -s 15 -d -1 -p AODV -e 44 -c 2 -a 0 -i 0 -k RTR
+ -t 0.000675000 -s 17 -d -1 -p AODV -e 102 -c 2 -a 0 -i 0 -k MAC 
- -t 0.000675000 -s 17 -d -1 -p AODV -e 102 -c 2 -a 0 -i 0 -k MAC
h -t 0.000675000 -s 17 -d -1 -p AODV -e 102 -c 2 -a 0 -i 0 -k MAC
+ -t 0.001149294 -s 15 -d -1 -p AODV -e 102 -c 2 -a 0 -i 0 -k MAC 
- -t 0.001149294 -s 15 -d -1 -p AODV -e 102 -c 2 -a 0 -i 0 -k MAC
h -t 0.001149294 -s 15 -d -1 -p AODV -e 102 -c 2 -a 0 -i 0 -k MAC
+ -t 0.001473340 -s 7 -d -1 -p AODV -e 102 -c 2 -a 0 -i 0 -k MAC 
- -t 0.001473340 -s 7 -d -1 -p AODV -e 102 -c 2 -a 0 -i 0 -k MAC
h -t 0.001473340 -s 7 -d -1 -p AODV -e 102 -c 2 -a 0 -i 0 -k MAC
r -t 0.001653589 -s 16 -d -1 -p AODV -e 44 -c 2 -a 0 -i 0 -k MAC
r -t 0.001678589 -s 16 -d -1 -p AODV -e 44 -c 2 -a 0 -i 0 -k RTR
n -t 0.200000 -s 2 -x 201.000000 -y 552.000000 -U 6.038681 -V -19.066576 -T 17.884700
n -t 0.200000 -s 18 -x 741.000000 -y 152.000000 -U -14.288674 -V 13.994063 -T 40.731560
n -t 0.250000 -s 11 -x 569.000000 -y 167.000000 -U -0.983920 -V 24.980631 -T 18.294174
n -t 0.500000 -s 10 -x 519.000000 -y 361.000000 -U 5.260965 -V 24.440177 -T 15.016258
n -t 0.750000 -s 0 -x 36.000000 -y 529.000000 -U 17.709552 -V -9.293642 -T 19.368079
n -t 0.750000 -s 1 -x 143.000000 -y 666.000000 -U 15.004176 -V -13.224020 -T 27.525670
n -t 0.750000 -s 4 -x 230.000000 -y 291.000000 -U -7.413765 -V -18.575147 -T 12.274465
n -t 0.750000 -s 5 -x 295.000000 -y 419.000000 -U 1.272924 -V -19.959450 -T 19.639819
n -t 0.750000 -s 16 -x 630.000000 -y 626.000000 -U 10.372246 -V 17.100190 -T 10.701635
n -t 0.750000 -s 17 -x 666.000000 -y 347.000000 -U -9.038877 -V 17.840928 -T 25.335005
n -t 0.750000 -s 20 -x 761.000000 -y 441.000000 -U 19.985223 -V 0.768662 -T 3.902884
+ -t 0.770587763 -s 1 -d -1 -p AODV -e 44 -c 2 -a 0 -i 0 -k RTR 
- -t 0.770587763 -s 1 -d -1 -p AODV -e 44 -c 2 -a 0 -i 0 -k RTR
h -t 0.770587763 -s 1 -d -1 -p AODV -e 44 -c 2 -a 0 -i 0 -k RTR
+ -t 0.771062763 -s 1 -d -1 -p AODV -e 102 -c 2 -a 0 -i 0 -k MAC 
- -t 0.771062763 -s 1 -d -1 -p AODV -e 102 -c 2 -a 0 -i 0 -k MAC
h -t 0.771062763 -s 1 -d -1 -p AODV -e 102 -c 2 -a 0 -i 0 -k MAC
+ -t 0.889431936 -s 5 -d -1 -p AODV -e 44 -c 2 -a 0 -i 0 -k RTR 
- -t 0.889431936 -s 5 -d -1 -p AODV -e 44 -c 2 -a 0 -i 0 -k RTR
h -t 0.889431936 -s 5 -d -1 -p AODV -e 44 -c 2 -a 0 -i 0 -k RTR
+ -t 0.890026936 -s 5 -d -1 -p AODV -e 102 -c 2 -a 0 -i 0 -k MAC 
- -t 0.890026936 -s 5 -d -1 -p AODV -e 102 -c 2 -a 0 -i 0 -k MAC
h -t 0.890026936 -s 5 -d -1 -p AODV -e 102 -c 2 -a 0 -i 0 -k MAC
+ -t 0.896437126 -s 12 -d -1 -p AODV -e 44 -c 2 -a 0 -i 0 -k RTR 
- -t 0.896437126 -s 12 -d -1 -p AODV -e 44 -c 2 -a 0 -i 0 -k RTR
h -t 0.896437126 -s 12 -d -1 -p AODV -e 44 -c 2 -a 0 -i 0 -k RTR
+ -t 0.896972126 -s 12 -d -1 -p AODV -e 102 -c 2 -a 0 -i 0 -k MAC 
- -t 0.896972126 -s 12 -d -1 -p AODV -e 102 -c 2 -a 0 -i 0 -k MAC
h -t 0.896972126 -s 12 -d -1 -p AODV -e 102 -c 2 -a 0 -i 0 -k MAC
+ -t 0.901704939 -s 15 -d -1 -p AODV -e 44 -c 2 -a 0 -i 0 -k RTR 
- -t 0.901704939 -s 15 -d -1 -p AODV -e 44 -c 2 -a 0 -i 0 -k RTR
h -t 0.901704939 -s 15 -d -1 -p AODV -e 44 -c 2 -a 0 -i 0 -k RTR
+ -t 0.901799939 -s 15 -d -1 -p AODV -e 102 -c 2 -a 0 -i 0 -k MAC 
- -t 0.901799939 -s 15 -d -1 -p AODV -e 102 -c 2 -a 0 -i 0 -k MAC
h -t 0.901799939 -s 15 -d -1 -p AODV -e 102 -c 2 -a 0 -i 0 -k MAC
r -t 0.902304226 -s 16 -d -1 -p AODV -e 44 -c 2 -a 0 -i 0 -k MAC
r -t 0.902329226 -s 16 -d -1 -p AODV -e 44 -c 2 -a 0 -i 0 -k RTR
+ -t 0.919135326 -s 2 -d -1 -p AODV -e 44 -c 2 -a 0 -i 0 -k RTR 
- -t 0.919135326 -s 2 -d -1 -p AODV -e 44 -c 2 -a 0 -i 0 -k RTR
h -t 0.919135326 -s 2 -d -1 -p AODV -e 44 -c 2 -a 0 -i 0 -k RTR
+ -t 0.919750326 -s 2 -d -1 -p AODV -e 102 -c 2 -a 0 -i 0 -k MAC 
- -t 0.919750326 -s 2 -d -1 -p AODV -e 102 -c 2 -a 0 -i 0 -k MAC
h -t 0.919750326 -s 2 -d -1 -p AODV -e 102 -c 2 -a 0 -i 0 -k MAC
+ -t 0.933295564 -s 4 -d -1 -p AODV -e 44 -c 2 -a 0 -i 0 -k RTR 
- -t 0.933295564 -s 4 -d -1 -p AODV -e 44 -c 2 -a 0 -i 0 -k RTR
h -t 0.933295564 -s 4 -d -1 -p AODV -e 44 -c 2 -a 0 -i 0 -k RTR
+ -t 0.933510564 -s 4 -d -1 -p AODV -e 102 -c 2 -a 0 -i 0 -k MAC 
- -t 0.933510564 -s 4 -d -1 -p AODV -e 102 -c 2 -a 0 -i 0 -k MAC
h -t 0.933510564 -s 4 -d -1 -p AODV -e 102 -c 2 -a 0 -i 0 -k MAC
+ -t 0.948781177 -s 7 -d -1 -p AODV -e 44 -c 2 -a 0 -i 0 -k RTR 
- -t 0.948781177 -s 7 -d -1 -p AODV -e 44 -c 2 -a 0 -i 0 -k RTR
h -t 0.948781177 -s 7 -d -1 -p AODV -e 44 -c 2 -a 0 -i 0 -k RTR
+ -t 0.949176177 -s 7 -d -1 -p AODV -e 102 -c 2 -a 0 -i 0 -k MAC 
- -t 0.949176177 -s 7 -d -1 -p AODV -e 102 -c 2 -a 0 -i 0 -k MAC
h -t 0.949176177 -s 7 -d -1 -p AODV -e 102 -c 2 -a 0 -i 0 -k MAC
+ -t 0.984697504 -s 17 -d -1 -p AODV -e 44 -c 2 -a 0 -i 0 -k RTR 
- -t 0.984697504 -s 17 -d -1 -p AODV -e 44 -c 2 -a 0 -i 0 -k RTR
h -t 0.984697504 -s 17 -d -1 -p AODV -e 44 -c 2 -a 0 -i 0 -k RTR
+ -t 0.985312504 -s 17 -d -1 -p AODV -e 102 -c 2 -a 0 -i 0 -k MAC 
- -t 0.985312504 -s 17 -d -1 -p AODV -e 102 -c 2 -a 0 -i 0 -k MAC
h -t 0.985312504 -s 17 -d -1 -p AODV -e 102 -c 2 -a 0 -i 0 -k MAC
+ -t 0.994538135 -s 11 -d -1 -p AODV -e 44 -c 2 -a 0 -i 0 -k RTR 
- -t 0.994538135 -s 11 -d -1 -p AODV -e 44 -c 2 -a 0 -i 0 -k RTR
h -t 0.994538135 -s 11 -d -1 -p AODV -e 44 -c 2 -a 0 -i 0 -k RTR
+ -t 0.994653135 -s 11 -d -1 -p AODV -e 102 -c 2 -a 0 -i 0 -k MAC 
- -t 0.994653135 -s 11 -d -1 -p AODV -e 102 -c 2 -a 0 -i 0 -k MAC
h -t 0.994653135 -s 11 -d -1 -p AODV -e 102 -c 2 -a 0 -i 0 -k MAC
+ -t 1.000994028 -s 19 -d -1 -p AODV -e 44 -c 2 -a 0 -i 0 -k RTR 
- -t 1.000994028 -s 19 -d -1 -p AODV -e 44 -c 2 -a 0 -i 0 -k RTR
h -t 1.000994028 -s 19 -d -1 -p AODV -e 44 -c 2 -a 0 -i 0 -k RTR
+ -t 1.001389028 -s 19 -d -1 -p AODV -e 102 -c 2 -a 0 -i 0 -k MAC 
- -t 1.001389028 -s 19 -d -1 -p AODV -e 102 -c 2 -a 0 -i 0 -k MAC
h -t 1.001389028 -s 19 -d -1 -p AODV -e 102 -c 2 -a 0 -i 0 -k MAC
+ -t 1.002002219 -s 10 -d -1 -p AODV -e 44 -c 2 -a 0 -i 0 -k RTR 
- -t 1.002002219 -s 10 -d -1 -p AODV -e 44 -c 2 -a 0 -i 0 -k RTR
h -t 1.002002219 -s 10 -d -1 -p AODV -e 44 -c 2 -a 0 -i 0 -k RTR
+ -t 1.002557219 -s 10 -d -1 -p AODV -e 102 -c 2 -a 0 -i 0 -k MAC 
- -t 1.002557219 -s 10 -d -1 -p AODV -e 102 -c 2 -a 0 -i 0 -k MAC
h -t 1.002557219 -s 10 -d -1 -p AODV -e 102 -c 2 -a 0 -i 0 -k MAC
+ -t 1.006851643 -s 9 -d -1 -p AODV -e 44 -c 2 -a 0 -i 0 -k RTR 
- -t 1.006851643 -s 9 -d -1 -p AODV -e 44 -c 2 -a 0 -i 0 -k RTR
h -t 1.006851643 -s 9 -d -1 -p AODV -e 44 -c 2 -a 0 -i 0 -k RTR
+ -t 1.007026643 -s 9 -d -1 -p AODV -e 102 -c 2 -a 0 -i 0 -k MAC 
- -t 1.007026643 -s 9 -d -1 -p AODV -e 102 -c 2 -a 0 -i 0 -k MAC
h -t 1.007026643 -s 9 -d -1 -p AODV -e 102 -c 2 -a 0 -i 0 -k MAC
+ -t 1.008997529 -s 14 -d -1 -p AODV -e 44 -c 2 -a 0 -i 0 -k RTR 
- -t 1.008997529 -s 14 -d -1 -p AODV -e 44 -c 2 -a 0 -i 0 -k RTR
h -t 1.008997529 -s 14 -d -1 -p AODV -e 44 -c 2 -a 0 -i 0 -k RTR
+ -t 1.009132529 -s 14 -d -1 -p AODV -e 102 -c 2 -a 0 -i 0 -k MAC 
- -t 1.009132529 -s 14 -d -1 -p AODV -e 102 -c 2 -a 0 -i 0 -k MAC
h -t 1.009132529 -s 14 -d -1 -p AODV -e 102 -c 2 -a 0 -i 0 -k MAC
+ -t 1.034974108 -s 18 -d -1 -p AODV -e 44 -c 2 -a 0 -i 0 -k RTR 
- -t 1.034974108 -s 18 -d -1 -p AODV -e 44 -c 2 -a 0 -i 0 -k RTR
h -t 1.034974108 -s 18 -d -1 -p AODV -e 44 -c 2 -a 0 -i 0 -k RTR
+ -t 1.035109108 -s 18 -d -1 -p AODV -e 102 -c 2 -a 0 -i 0 -k MAC 
- -t 1.035109108 -s 18 -d -1 -p AODV -e 102 -c 2 -a 0 -i 0 -k MAC
h -t 1.035109108 -s 18 -d -1 -p AODV -e 102 -c 2 -a 0 -i 0 -k MAC
+ -t 1.056136597 -s 20 -d -1 -p AODV -e 44 -c 2 -a 0 -i 0 -k RTR 
- -t 1.056136597 -s 20 -d -1 -p AODV -e 44 -c 2 -a 0 -i 0 -k RTR
h -t 1.056136597 -s 20 -d -1 -p AODV -e 44 -c 2 -a 0 -i 0 -k RTR
+ -t 1.056651597 -s 20 -d -1 -p AODV -e 102 -c 2 -a 0 -i 0 -k MAC 
- -t 1.056651597 -s 20 -d -1 -p AODV -e 102 -c 2 -a 0 -i 0 -k MAC
h -t 1.056651597 -s 20 -d -1 -p AODV -e 102 -c 2 -a 0 -i 0 -k MAC
+ -t 1.101600768 -s 3 -d -1 -p AODV -e 44 -c 2 -a 0 -i 0 -k RTR 
- -t 1.101600768 -s 3 -d -1 -p AODV -e 44 -c 2 -a 0 -i 0 -k RTR
h -t 1.101600768 -s 3 -d -1 -p AODV -e 44 -c 2 -a 0 -i 0 -k RTR
+ -t 1.101755768 -s 3 -d -1 -p AODV -e 102 -c 2 -a 0 -i 0 -k MAC 
- -t 1.101755768 -s 3 -d -1 -p AODV -e 102 -c 2 -a 0 -i 0 -k MAC
h -t 1.101755768 -s 3 -d -1 -p AODV -e 102 -c 2 -a 0 -i 0 -k MAC
+ -t 1.168923424 -s 6 -d -1 -p AODV -e 44 -c 2 -a 0 -i 0 -k RTR 
- -t 1.168923424 -s 6 -d -1 -p AODV -e 44 -c 2 -a 0 -i 0 -k RTR
h -t 1.168923424 -s 6 -d -1 -p AODV -e 44 -c 2 -a 0 -i 0 -k RTR
+ -t 1.169158424 -s 6 -d -1 -p AODV -e 102 -c 2 -a 0 -i 0 -k MAC 
- -t 1.169158424 -s 6 -d -1 -p AODV -e 102 -c 2 -a 0 -i 0 -k MAC
h -t 1.169158424 -s 6 -d -1 -p AODV -e 102 -c 2 -a 0 -i 0 -k MAC
+ -t 1.198864530 -s 13 -d -1 -p AODV -e 44 -c 2 -a 0 -i 0 -k RTR 
- -t 1.198864530 -s 13 -d -1 -p AODV -e 44 -c 2 -a 0 -i 0 -k RTR
h -t 1.198864530 -s 13 -d -1 -p AODV -e 44 -c 2 -a 0 -i 0 -k RTR
+ -t 1.199199530 -s 13 -d -1 -p AODV -e 102 -c 2 -a 0 -i 0 -k MAC 
- -t 1.199199530 -s 13 -d -1 -p AODV -e 102 -c 2 -a 0 -i 0 -k MAC
h -t 1.199199530 -s 13 -d -1 -p AODV -e 102 -c 2 -a 0 -i 0 -k MAC
+ -t 1.208454326 -s 16 -d -1 -p AODV -e 44 -c 2 -a 0 -i 0 -k RTR 
- -t 1.208454326 -s 16 -d -1 -p AODV -e 44 -c 2 -a 0 -i 0 -k RTR
h -t 1.208454326 -s 16 -d -1 -p AODV -e 44 -c 2 -a 0 -i 0 -k RTR
+ -t 1.208669326 -s 16 -d -1 -p AODV -e 102 -c 2 -a 0 -i 0 -k MAC 
- -t 1.208669326 -s 16 -d -1 -p AODV -e 102 -c 2 -a 0 -i 0 -k MAC
h -t 1.208669326 -s 16 -d -1 -p AODV -e 102 -c 2 -a 0 -i 0 -k MAC
+ -t 1.208745667 -s 0 -d -1 -p AODV -e 44 -c 2 -a 0 -i 0 -k RTR 
- -t 1.208745667 -s 0 -d -1 -p AODV -e 44 -c 2 -a 0 -i 0 -k RTR
h -t 1.208745667 -s 0 -d -1 -p AODV -e 44 -c 2 -a 0 -i 0 -k RTR
r -t 1.209173601 -s 15 -d -1 -p AODV -e 44 -c 2 -a 0 -i 0 -k MAC
r -t 1.209198601 -s 15 -d -1 -p AODV -e 44 -c 2 -a 0 -i 0 -k RTR
+ -t 1.209300667 -s 0 -d -1 -p AODV -e 102 -c 2 -a 0 -i 0 -k MAC 
- -t 1.209300667 -s 0 -d -1 -p AODV -e 102 -c 2 -a 0 -i 0 -k MAC
h -t 1.209300667 -s 0 -d -1 -p AODV -e 102 -c 2 -a 0 -i 0 -k MAC
+ -t 1.221452699 -s 8 -d -1 -p AODV -e 44 -c 2 -a 0 -i 0 -k RTR 
- -t 1.221452699 -s 8 -d -1 -p AODV -e 44 -c 2 -a 0 -i 0 -k RTR
h -t 1.221452699 -s 8 -d -1 -p AODV -e 44 -c 2 -a 0 -i 0 -k RTR
+ -t 1.221747699 -s 8 -d -1 -p AODV -e 102 -c 2 -a 0 -i 0 -k MAC 
- -t 1.221747699 -s 8 -d -1 -p AODV -e 102 -c 2 -a 0 -i 0 -k MAC
h -t 1.221747699 -s 8 -d -1 -p AODV -e 102 -c 2 -a 0 -i 0 -k MAC
n -t 1.250000 -s 3 -x 147.000000 -y 403.000000 -U 8.315195 -V -18.189490 -T 3.848376
n -t 1.250000 -s 7 -x 334.000000 -y 647.000000 -U -7.022469 -V -18.726584 -T 8.544004
n -t 1.250000 -s 8 -x 304.000000 -y 777.000000 -U 10.650318 -V -16.928400 -T 17.839843
n -t 1.250000 -s 9 -x 412.000000 -y 194.000000 -U 16.355356 -V 18.907732 -T 29.776178
n -t 1.250000 -s 12 -x 349.000000 -y 546.000000 -U 10.730980 -V 22.579771 -T 4.473030
n -t 1.250000 -s 13 -x 466.000000 -y 668.000000 -U 24.937362 -V 1.768607 -T 11.308333
n -t 1.250000 -s 14 -x 489.000000 -y 794.000000 -U 22.499142 -V -10.899018 -T 15.689487
n -t 1.250000 -s 15 -x 606.000000 -y 711.000000 -U 10.101366 -V -22.868371 -T 7.127749
n -t 1.250000 -s 19 -x 882.000000 -y 264.000000 -U -18.082841 -V 8.544639 -T 10.064790
n -t 1.500000 -s 6 -x 363.000000 -y 335.000000 -U 11.166487 -V -16.592455 -T 12.716623
+ -t 1.832789568 -s 15 -d -1 -p AODV -e 44 -c 2 -a 0 -i 0 -k RTR 
- -t 1.832789568 -s 15 -d -1 -p AODV -e 44 -c 2 -a 0 -i 0 -k RTR
h -t 1.832789568 -s 15 -d -1 -p AODV -e 44 -c 2 -a 0 -i 0 -k RTR
+ -t 1.832964568 -s 15 -d -1 -p AODV -e 102 -c 2 -a 0 -i 0 -k MAC 
- -t 1.832964568 -s 15 -d -1 -p AODV -e 102 -c 2 -a 0 -i 0 -k MAC
h -t 1.832964568 -s 15 -d -1 -p AODV -e 102 -c 2 -a 0 -i 0 -k MAC
r -t 1.833468770 -s 16 -d -1 -p AODV -e 44 -c 2 -a 0 -i 0 -k MAC
r -t 1.833493770 -s 16 -d -1 -p AODV -e 44 -c 2 -a 0 -i 0 -k RTR
+ -t 1.933365093 -s 3 -d -1 -p AODV -e 44 -c 2 -a 0 -i 0 -k RTR 
- -t 1.933365093 -s 3 -d -1 -p AODV -e 44 -c 2 -a 0 -i 0 -k RTR
h -t 1.933365093 -s 3 -d -1 -p AODV -e 44 -c 2 -a 0 -i 0 -k RTR
+ -t 1.934020093 -s 3 -d -1 -p AODV -e 102 -c 2 -a 0 -i 0 -k MAC 
- -t 1.934020093 -s 3 -d -1 -p AODV -e 102 -c 2 -a 0 -i 0 -k MAC
h -t 1.934020093 -s 3 -d -1 -p AODV -e 102 -c 2 -a 0 -i 0 -k MAC
+ -t 1.948438069 -s 5 -d -1 -p AODV -e 44 -c 2 -a 0 -i 0 -k RTR 
- -t 1.948438069 -s 5 -d -1 -p AODV -e 44 -c 2 -a 0 -i 0 -k RTR
h -t 1.948438069 -s 5 -d -1 -p AODV -e 44 -c 2 -a 0 -i 0 -k RTR
+ -t 1.948513069 -s 5 -d -1 -p AODV -e 102 -c 2 -a 0 -i 0 -k MAC 
- -t 1.948513069 -s 5 -d -1 -p AODV -e 102 -c 2 -a 0 -i 0 -k MAC
h -t 1.948513069 -s 5 -d -1 -p AODV -e 102 -c 2 -a 0 -i 0 -k MAC
r -t 1.949017397 -s 6 -d -1 -p AODV -e 44 -c 2 -a 0 -i 0 -k MAC
r -t 1.949042397 -s 6 -d -1 -p AODV -e 44 -c 2 -a 0 -i 0 -k RTR
+ -t 1.961098185 -s 13 -d -1 -p AODV -e 44 -c 2 -a 0 -i 0 -k RTR 
- -t 1.961098185 -s 13 -d -1 -p AODV -e 44 -c 2 -a 0 -i 0 -k RTR
h -t 1.961098185 -s 13 -d -1 -p AODV -e 44 -c 2 -a 0 -i 0 -k RTR
+ -t 1.961713185 -s 13 -d -1 -p AODV -e 102 -c 2 -a 0 -i 0 -k MAC 
- -t 1.961713185 -s 13 -d -1 -p AODV -e 102 -c 2 -a 0 -i 0 -k MAC
h -t 1.961713185 -s 13 -d -1 -p AODV -e 102 -c 2 -a 0 -i 0 -k MAC
+ -t 1.966619509 -s 1 -d -1 -p AODV -e 44 -c 2 -a 0 -i 0 -k RTR 
- -t 1.966619509 -s 1 -d -1 -p AODV -e 44 -c 2 -a 0 -i 0 -k RTR
h -t 1.966619509 -s 1 -d -1 -p AODV -e 44 -c 2 -a 0 -i 0 -k RTR
+ -t 1.966934509 -s 1 -d -1 -p AODV -e 102 -c 2 -a 0 -i 0 -k MAC 
- -t 1.966934509 -s 1 -d -1 -p AODV -e 102 -c 2 -a 0 -i 0 -k MAC
h -t 1.966934509 -s 1 -d -1 -p AODV -e 102 -c 2 -a 0 -i 0 -k MAC
+ -t 1.983702815 -s 8 -d -1 -p AODV -e 44 -c 2 -a 0 -i 0 -k RTR 
- -t 1.983702815 -s 8 -d -1 -p AODV -e 44 -c 2 -a 0 -i 0 -k RTR
h -t 1.983702815 -s 8 -d -1 -p AODV -e 44 -c 2 -a 0 -i 0 -k RTR
+ -t 1.984277815 -s 8 -d -1 -p AODV -e 102 -c 2 -a 0 -i 0 -k MAC 
- -t 1.984277815 -s 8 -d -1 -p AODV -e 102 -c 2 -a 0 -i 0 -k MAC
h -t 1.984277815 -s 8 -d -1 -p AODV -e 102 -c 2 -a 0 -i 0 -k MAC
+ -t 1.996927594 -s 7 -d -1 -p AODV -e 44 -c 2 -a 0 -i 0 -k RTR 
- -t 1.996927594 -s 7 -d -1 -p AODV -e 44 -c 2 -a 0 -i 0 -k RTR
h -t 1.996927594 -s 7 -d -1 -p AODV -e 44 -c 2 -a 0 -i 0 -k RTR
+ -t 1.997462594 -s 7 -d -1 -p AODV -e 102 -c 2 -a 0 -i 0 -k MAC 
- -t 1.997462594 -s 7 -d -1 -p AODV -e 102 -c 2 -a 0 -i 0 -k MAC
h -t 1.997462594 -s 7 -d -1 -p AODV -e 102 -c 2 -a 0 -i 0 -k MAC
r -t 1.997966846 -s 12 -d -1 -p AODV -e 44 -c 2 -a 0 -i 0 -k MAC
r -t 1.997991846 -s 12 -d -1 -p AODV -e 44 -c 2 -a 0 -i 0 -k RTR
+ -t 2.023264708 -s 12 -d -1 -p AODV -e 44 -c 2 -a 0 -i 0 -k RTR 
- -t 2.023264708 -s 12 -d -1 -p AODV -e 44 -c 2 -a 0 -i 0 -k RTR
h -t 2.023264708 -s 12 -d -1 -p AODV -e 44 -c 2 -a 0 -i 0 -k RTR
+ -t 2.023619708 -s 12 -d -1 -p AODV -e 102 -c 2 -a 0 -i 0 -k MAC 
- -t 2.023619708 -s 12 -d -1 -p AODV -e 102 -c 2 -a 0 -i 0 -k MAC
h -t 2.023619708 -s 12 -d -1 -p AODV -e 102 -c 2 -a 0 -i 0 -k MAC
r -t 2.024123958 -s 7 -d -1 -p AODV -e 44 -c 2 -a 0 -i 0 -k MAC
r -t 2.024148958 -s 7 -d -1 -p AODV -e 44 -c 2 -a 0 -i 0 -k RTR
+ -t 2.027368030 -s 2 -d -1 -p AODV -e 44 -c 2 -a 0 -i 0 -k RTR 
- -t 2.027368030 -s 2 -d -1 -p AODV -e 44 -c 2 -a 0 -i 0 -k RTR
h -t 2.027368030 -s 2 -d -1 -p AODV -e 44 -c 2 -a 0 -i 0 -k RTR
+ -t 2.027563030 -s 2 -d -1 -p AODV -e 102 -c 2 -a 0 -i 0 -k MAC 
- -t 2.027563030 -s 2 -d -1 -p AODV -e 102 -c 2 -a 0 -i 0 -k MAC
h -t 2.027563030 -s 2 -d -1 -p AODV -e 102 -c 2 -a 0 -i 0 -k MAC
+ -t 2.049777250 -s 17 -d -1 -p AODV -e 44 -c 2 -a 0 -i 0 -k RTR 
- -t 2.049777250 -s 17 -d -1 -p AODV -e 44 -c 2 -a 0 -i 0 -k RTR
h -t 2.049777250 -s 17 -d -1 -p AODV -e 44 -c 2 -a 0 -i 0 -k RTR
+ -t 2.050232250 -s 17 -d -1 -p AODV -e 102 -c 2 -a 0 -i 0 -k MAC 
- -t 2.050232250 -s 17 -d -1 -p AODV -e 102 -c 2 -a 0 -i 0 -k MAC
h -t 2.050232250 -s 17 -d -1 -p AODV -e 102 -c 2 -a 0 -i 0 -k MAC
+ -t 2.057115302 -s 20 -d -1 -p AODV -e 44 -c 2 -a 0 -i 0 -k RTR 
- -t 2.057115302 -s 20 -d -1 -p AODV -e 44 -c 2 -a 0 -i 0 -k RTR
h -t 2.057115302 -s 20 -d -1 -p AODV -e 44 -c 2 -a 0 -i 0 -k RTR
+ -t 2.057550302 -s 20 -d -1 -p AODV -e 102 -c 2 -a 0 -i 0 -k MAC 
- -t 2.057550302 -s 20 -d -1 -p AODV -e 102 -c 2 -a 0 -i 0 -k MAC
h -t 2.057550302 -s 20 -d -1 -p AODV -e 102 -c 2 -a 0 -i 0 -k MAC
+ -t 2.070792124 -s 9 -d -1 -p AODV -e 44 -c 2 -a 0 -i 0 -k RTR 
- -t 2.070792124 -s 9 -d -1 -p AODV -e 44 -c 2 -a 0 -i 0 -k RTR
h -t 2.070792124 -s 9 -d -1 -p AODV -e 44 -c 2 -a 0 -i 0 -k RTR
+ -t 2.071107124 -s 9 -d -1 -p AODV -e 102 -c 2 -a 0 -i 0 -k MAC 
- -t 2.071107124 -s 9 -d -1 -p AODV -e 102 -c 2 -a 0 -i 0 -k MAC
h -t 2.071107124 -s 9 -d -1 -p AODV -e 102 -c 2 -a 0 -i 0 -k MAC
+ -t 2.077611800 -s 11 -d -1 -p AODV -e 44 -c 2 -a 0 -i 0 -k RTR 
- -t 2.077611800 -s 11 -d -1 -p AODV -e 44 -c 2 -a 0 -i 0 -k RTR
h -t 2.077611800 -s 11 -d -1 -p AODV -e 44 -c 2 -a 0 -i 0 -k RTR
+ -t 2.078066800 -s 11 -d -1 -p AODV -e 102 -c 2 -a 0 -i 0 -k MAC 
- -t 2.078066800 -s 11 -d -1 -p AODV -e 102 -c 2 -a 0 -i 0 -k MAC
h -t 2.078066800 -s 11 -d -1 -p AODV -e 102 -c 2 -a 0 -i 0 -k MAC
+ -t 2.084272923 -s 16 -d -1 -p AODV -e 44 -c 2 -a 0 -i 0 -k RTR 
- -t 2.084272923 -s 16 -d -1 -p AODV -e 44 -c 2 -a 0 -i 0 -k RTR
h -t 2.084272923 -s 16 -d -1 -p AODV -e 44 -c 2 -a 0 -i 0 -k RTR
+ -t 2.084867923 -s 16 -d -1 -p AODV -e 102 -c 2 -a 0 -i 0 -k MAC 
- -t 2.084867923 -s 16 -d -1 -p AODV -e 102 -c 2 -a 0 -i 0 -k MAC
h -t 2.084867923 -s 16 -d -1 -p AODV -e 102 -c 2 -a 0 -i 0 -k MAC
r -t 2.085372097 -s 15 -d -1 -p AODV -e 44 -c 2 -a 0 -i 0 -k MAC
r -t 2.085397097 -s 15 -d -1 -p AODV -e 44 -c 2 -a 0 -i 0 -k RTR
+ -t 2.085448628 -s 19 -d -1 -p AODV -e 44 -c 2 -a 0 -i 0 -k RTR 
- -t 2.085448628 -s 19 -d -1 -p AODV -e 44 -c 2 -a 0 -i 0 -k RTR
h -t 2.085448628 -s 19 -d -1 -p AODV -e 44 -c 2 -a 0 -i 0 -k RTR
+ -t 2.085843628 -s 19 -d -1 -p AODV -e 102 -c 2 -a 0 -i 0 -k MAC 
- -t 2.085843628 -s 19 -d -1 -p AODV -e 102 -c 2 -a 0 -i 0 -k MAC
h -t 2.085843628 -s 19 -d -1 -p AODV -e 102 -c 2 -a 0 -i 0 -k MAC
+ -t 2.097378482 -s 6 -d -1 -p AODV -e 44 -c 2 -a 0 -i 0 -k RTR 
- -t 2.097378482 -s 6 -d -1 -p AODV -e 44 -c 2 -a 0 -i 0 -k RTR
h -t 2.097378482 -s 6 -d -1 -p AODV -e 44 -c 2 -a 0 -i 0 -k RTR
+ -t 2.097633482 -s 6 -d -1 -p AODV -e 102 -c 2 -a 0 -i 0 -k MAC 
- -t 2.097633482 -s 6 -d -1 -p AODV -e 102 -c 2 -a 0 -i 0 -k MAC
h -t 2.097633482 -s 6 -d -1 -p AODV -e 102 -c 2 -a 0 -i 0 -k MAC
r -t 2.098137812 -s 5 -d -1 -p AODV -e 44 -c 2 -a 0 -i 0 -k MAC
r -t 2.098162812 -s 5 -d -1 -p AODV -e 44 -c 2 -a 0 -i 0 -k RTR
+ -t 2.114792225 -s 4 -d -1 -p AODV -e 44 -c 2 -a 0 -i 0 -k RTR 
- -t 2.114792225 -s 4 -d -1 -p AODV -e 44 -c 2 -a 0 -i 0 -k RTR
h -t 2.114792225 -s 4 -d -1 -p AODV -e 44 -c 2 -a 0 -i 0 -k RTR
+ -t 2.115467225 -s 4 -d -1 -p AODV -e 102 -c 2 -a 0 -i 0 -k MAC 
- -t 2.115467225 -s 4 -d -1 -p AODV -e 102 -c 2 -a 0 -i 0 -k MAC
h -t 2.115467225 -s 4 -d -1 -p AODV -e 102 -c 2 -a 0 -i 0 -k MAC
+ -t 2.245603462 -s 14 -d -1 -p AODV -e 44 -c 2 -a 0 -i 0 -k RTR 
- -t 2.245603462 -s 14 -d -1 -p AODV -e 44 -c 2 -a 0 -i 0 -k RTR
h -t 2.245603462 -s 14 -d -1 -p AODV -e 44 -c 2 -a 0 -i 0 -k RTR