v 0 eval {set sim_annotation {MOBILE NODE MOVEMENTS}}
s -t 0.000000000 -Hs 0 -Hd -2 -Ni 0 -Nx 36.00 -Ny 529.00 -Nz 0.00 -Ne 100.000000 -Nl RTR -Nw --- -Ma 0 -Md 0 -Ms 0 -Mt 0 -Is 0.255 -Id -1.255 -It AODV -Il 44 -If 0 -Ii 0 -Iv 1 -P aodv -Pt 0x1 -Ph 1 -Pd 0 -Pds 2 -Pl 4.000000 -Pc HELLO 
s -t 0.000000000 -Hs 1 -Hd -2 -Ni 1 -Nx 143.00 -Ny 666.00 -Nz 0.00 -Ne 100.000000 -Nl RTR -Nw --- -Ma 0 -Md 0 -Ms 0 -Mt 0 -Is 1.255 -Id -1.255 -It AODV -Il 44 -If 0 -Ii 0 -Iv 1 -P aodv -Pt 0x1 -Ph 1 -Pd 1 -Pds 2 -Pl 4.000000 -Pc HELLO 
s -t 0.000000000 -Hs 2 -Hd -2 -Ni 2 -Nx 201.00 -Ny 552.00 -Nz 0.00 -Ne 100.000000 -Nl RTR -Nw --- -Ma 0 -Md 0 -Ms 0 -Mt 0 -Is 2.255 -Id -1.255 -It AODV -Il 44 -If 0 -Ii 0 -Iv 1 -P aodv -Pt 0x1 -Ph 1 -Pd 2 -Pds 2 -Pl 4.000000 -Pc HELLO 
s -t 0.000000000 -Hs 3 -Hd -2 -Ni 3 -Nx 147.00 -Ny 403.00 -Nz 0.00 -Ne 100.000000 -Nl RTR -Nw --- -Ma 0 -Md 0 -Ms 0 -Mt 0 -Is 3.255 -Id -1.255 -It AODV -Il 44 -If 0 -Ii 0 -Iv 1 -P aodv -Pt 0x1 -Ph 1 -Pd 3 -Pds 2 -Pl 4.000000 -Pc HELLO 
s -t 0.000000000 -Hs 4 -Hd -2 -Ni 4 -Nx 230.00 -Ny 291.00 -Nz 0.00 -Ne 100.000000 -Nl RTR -Nw --- -Ma 0 -Md 0 -Ms 0 -Mt 0 -Is 4.255 -Id -1.255 -It AODV -Il 44 -If 0 -Ii 0 -Iv 1 -P aodv -Pt 0x1 -Ph 1 -Pd 4 -Pds 2 -Pl 4.000000 -Pc HELLO 
s -t 0.000000000 -Hs 5 -Hd -2 -Ni 5 -Nx 295.00 -Ny 419.00 -Nz 0.00 -Ne 100.000000 -Nl RTR -Nw --- -Ma 0 -Md 0 -Ms 0 -Mt 0 -Is 5.255 -Id -1.255 -It AODV -Il 44 -If 0 -Ii 0 -Iv 1 -P aodv -Pt 0x1 -Ph 1 -Pd 5 -Pds 2 -Pl 4.000000 -Pc HELLO 
s -t 0.000000000 -Hs 6 -Hd -2 -Ni 6 -Nx 363.00 -Ny 335.00 -Nz 0.00 -Ne 100.000000 -Nl RTR -Nw --- -Ma 0 -Md 0 -Ms 0 -Mt 0 -Is 6.255 -Id -1.255 -It AODV -Il 44 -If 0 -Ii 0 -Iv 1 -P aodv -Pt 0x1 -Ph 1 -Pd 6 -Pds 2 -Pl 4.000000 -Pc HELLO 
s -t 0.000000000 -Hs 7 -Hd -2 -Ni 7 -Nx 334.00 -Ny 647.00 -Nz 0.00 -Ne 100.000000 -Nl RTR -Nw --- -Ma 0 -Md 0 -Ms 0 -Mt 0 -Is 7.255 -Id -1.255 -It AODV -Il 44 -If 0 -Ii 0 -Iv 1 -P aodv -Pt 0x1 -Ph 1 -Pd 7 -Pds 2 -Pl 4.000000 -Pc HELLO 
s -t 0.000000000 -Hs 8 -Hd -2 -Ni 8 -Nx 304.00 -Ny 777.00 -Nz 0.00 -Ne 100.000000 -Nl RTR -Nw --- -Ma 0 -Md 0 -Ms 0 -Mt 0 -Is 8.255 -Id -1.255 -It AODV -Il 44 -If 0 -Ii 0 -Iv 1 -P aodv -Pt 0x1 -Ph 1 -Pd 8 -Pds 2 -Pl 4.000000 -Pc HELLO 
s -t 0.000000000 -Hs 9 -Hd -2 -Ni 9 -Nx 412.00 -Ny 194.00 -Nz 0.00 -Ne 100.000000 -Nl RTR -Nw --- -Ma 0 -Md 0 -Ms 0 -Mt 0 -Is 9.255 -Id -1.255 -It AODV -Il 44 -If 0 -Ii 0 -Iv 1 -P aodv -Pt 0x1 -Ph 1 -Pd 9 -Pds 2 -Pl 4.000000 -Pc HELLO 
s -t 0.000000000 -Hs 10 -Hd -2 -Ni 10 -Nx 519.00 -Ny 361.00 -Nz 0.00 -Ne 100.000000 -Nl RTR -Nw --- -Ma 0 -Md 0 -Ms 0 -Mt 0 -Is 10.255 -Id -1.255 -It AODV -Il 44 -If 0 -Ii 0 -Iv 1 -P aodv -Pt 0x1 -Ph 1 -Pd 10 -Pds 2 -Pl 4.000000 -Pc HELLO 
s -t 0.000000000 -Hs 11 -Hd -2 -Ni 11 -Nx 569.00 -Ny 167.00 -Nz 0.00 -Ne 100.000000 -Nl RTR -Nw --- -Ma 0 -Md 0 -Ms 0 -Mt 0 -Is 11.255 -Id -1.255 -It AODV -Il 44 -If 0 -Ii 0 -Iv 1 -P aodv -Pt 0x1 -Ph 1 -Pd 11 -Pds 2 -Pl 4.000000 -Pc HELLO 
s -t 0.000000000 -Hs 12 -Hd -2 -Ni 12 -Nx 349.00 -Ny 546.00 -Nz 0.00 -Ne 100.000000 -Nl RTR -Nw --- -Ma 0 -Md 0 -Ms 0 -Mt 0 -Is 12.255 -Id -1.255 -It AODV -Il 44 -If 0 -Ii 0 -Iv 1 -P aodv -Pt 0x1 -Ph 1 -Pd 12 -Pds 2 -Pl 4.000000 -Pc HELLO 
s -t 0.000000000 -Hs 13 -Hd -2 -Ni 13 -Nx 466.00 -Ny 668.00 -Nz 0.00 -Ne 100.000000 -Nl RTR -Nw --- -Ma 0 -Md 0 -Ms 0 -Mt 0 -Is 13.255 -Id -1.255 -It AODV -Il 44 -If 0 -Ii 0 -Iv 1 -P aodv -Pt 0x1 -Ph 1 -Pd 13 -Pds 2 -Pl 4.000000 -Pc HELLO 
s -t 0.000000000 -Hs 14 -Hd -2 -Ni 14 -Nx 489.00 -Ny 794.00 -Nz 0.00 -Ne 100.000000 -Nl RTR -Nw --- -Ma 0 -Md 0 -Ms 0 -Mt 0 -Is 14.255 -Id -1.255 -It AODV -Il 44 -If 0 -Ii 0 -Iv 1 -P aodv -Pt 0x1 -Ph 1 -Pd 14 -Pds 2 -Pl 4.000000 -Pc HELLO 
s -t 0.000000000 -Hs 15 -Hd -2 -Ni 15 -Nx 606.00 -Ny 711.00 -Nz 0.00 -Ne 100.000000 -Nl RTR -Nw --- -Ma 0 -Md 0 -Ms 0 -Mt 0 -Is 15.255 -Id -1.255 -It AODV -Il 44 -If 0 -Ii 0 -Iv 1 -P aodv -Pt 0x1 -Ph 1 -Pd 15 -Pds 2 -Pl 4.000000 -Pc HELLO 
s -t 0.000000000 -Hs 16 -Hd -2 -Ni 16 -Nx 630.00 -Ny 626.00 -Nz 0.00 -Ne 100.000000 -Nl RTR -Nw --- -Ma 0 -Md 0 -Ms 0 -Mt 0 -Is 16.255 -Id -1.255 -It AODV -Il 44 -If 0 -Ii 0 -Iv 1 -P aodv -Pt 0x1 -Ph 1 -Pd 16 -Pds 2 -Pl 4.000000 -Pc HELLO 
s -t 0.000000000 -Hs 17 -Hd -2 -Ni 17 -Nx 666.00 -Ny 347.00 -Nz 0.00 -Ne 100.000000 -Nl RTR -Nw --- -Ma 0 -Md 0 -Ms 0 -Mt 0 -Is 17.255 -Id -1.255 -It AODV -Il 44 -If 0 -Ii 0 -Iv 1 -P aodv -Pt 0x1 -Ph 1 -Pd 17 -Pds 2 -Pl 4.000000 -Pc HELLO 
s -t 0.000000000 -Hs 18 -Hd -2 -Ni 18 -Nx 741.00 -Ny 152.00 -Nz 0.00 -Ne 100.000000 -Nl RTR -Nw --- -Ma 0 -Md 0 -Ms 0 -Mt 0 -Is 18.255 -Id -1.255 -It AODV -Il 44 -If 0 -Ii 0 -Iv 1 -P aodv -Pt 0x1 -Ph 1 -Pd 18 -Pds 2 -Pl 4.000000 -Pc HELLO 
s -t 0.000000000 -Hs 19 -Hd -2 -Ni 19 -Nx 882.00 -Ny 264.00 -Nz 0.00 -Ne 100.000000 -Nl RTR -Nw --- -Ma 0 -Md 0 -Ms 0 -Mt 0 -Is 19.255 -Id -1.255 -It AODV -Il 44 -If 0 -Ii 0 -Iv 1 -P aodv -Pt 0x1 -Ph 1 -Pd 19 -Pds 2 -Pl 4.000000 -Pc HELLO 
s -t 0.000000000 -Hs 20 -Hd -2 -Ni 20 -Nx 761.00 -Ny 441.00 -Nz 0.00 -Ne 100.000000 -Nl RTR -Nw --- -Ma 0 -Md 0 -Ms 0 -Mt 0 -Is 20.255 -Id -1.255 -It AODV -Il 44 -If 0 -Ii 0 -Iv 1 -P aodv -Pt 0x1 -Ph 1 -Pd 20 -Pds 2 -Pl 4.000000 -Pc HELLO 
N -t 0.000155 -n 15 -e 99.999971
N -t 0.000175 -n 7 -e 99.999971
r -t 0.000996294 -Hs 15 -Hd -2 -Ni 15 -Nx 606.00 -Ny 711.00 -Nz 0.00 -Ne 99.999971 -Nl RTR -Nw --- -Ma 0 -Md ffffffff -Ms 10 -Mt 800 -Is 16.255 -Id -1.255 -It AODV -Il 44 -If 0 -Ii 0 -Iv 1 -P aodv -Pt 0x1 -Ph 1 -Pd 16 -Pds 2 -Pl 4.000000 -Pc HELLO 
N -t 0.001522 -n 16 -e 99.999945
N -t 0.001746 -n 12 -e 99.999945
r -t 0.002362589 -Hs 16 -Hd -2 -Ni 16 -Nx 630.00 -Ny 626.00 -Nz 0.00 -Ne 99.999945 -Nl RTR -Nw --- -Ma 0 -Md ffffffff -Ms f -Mt 800 -Is 15.255 -Id -1.255 -It AODV -Il 44 -If 0 -Ii 0 -Iv 1 -P aodv -Pt 0x1 -Ph 1 -Pd 15 -Pds 2 -Pl 4.000000 -Pc HELLO 
M 0.20000 2 (201.00, 552.00, 0.00), (309.00, 211.00), 20.00
M 0.20000 18 (741.00, 152.00, 0.00), (159.00, 722.00), 20.00
M 0.25000 11 (569.00, 167.00, 0.00), (551.00, 624.00), 25.00
M 0.50000 10 (519.00, 361.00, 0.00), (598.00, 728.00), 25.00
M 0.75000 0 (36.00, 529.00, 0.00), (379.00, 349.00), 20.00
M 0.75000 1 (143.00, 666.00, 0.00), (556.00, 302.00), 20.00
M 0.75000 4 (230.00, 291.00, 0.00), (139.00, 63.00), 20.00
M 0.75000 5 (295.00, 419.00, 0.00), (320.00, 27.00), 20.00
M 0.75000 16 (630.00, 626.00, 0.00), (741.00, 809.00), 20.00
M 0.75000 17 (666.00, 347.00, 0.00), (437.00, 799.00), 20.00
M 0.75000 20 (761.00, 441.00, 0.00), (839.00, 444.00), 20.00
s -t 0.753788777 -Hs 6 -Hd -2 -Ni 6 -Nx 363.00 -Ny 335.00 -Nz 0.00 -Ne 99.999974 -Nl RTR -Nw --- -Ma 0 -Md 0 -Ms 0 -Mt 0 -Is 6.255 -Id -1.255 -It AODV -Il 44 -If 0 -Ii 0 -Iv 1 -P aodv -Pt 0x1 -Ph 1 -Pd 6 -Pds 2 -Pl 4.000000 -Pc HELLO 
s -t 0.759120508 -Hs 15 -Hd -2 -Ni 15 -Nx 606.00 -Ny 711.00 -Nz 0.00 -Ne 99.999945 -Nl RTR -Nw --- -Ma 0 -Md 0 -Ms 0 -Mt 0 -Is 15.255 -Id -1.255 -It AODV -Il 44 -If 0 -Ii 0 -Iv 1 -P aodv -Pt 0x1 -Ph 1 -Pd 15 -Pds 4 -Pl 4.000000 -Pc HELLO 
N -t 0.759456 -n 16 -e 99.999377
r -t 0.760296802 -Hs 16 -Hd -2 -Ni 16 -Nx 630.11 -Ny 626.18 -Nz 0.00 -Ne 99.999377 -Nl RTR -Nw --- -Ma 0 -Md ffffffff -Ms f -Mt 800 -Is 15.255 -Id -1.255 -It AODV -Il 44 -If 0 -Ii 0 -Iv 1 -P aodv -Pt 0x1 -Ph 1 -Pd 15 -Pds 4 -Pl 4.000000 -Pc HELLO 
s -t 0.788518181 -Hs 10 -Hd -2 -Ni 10 -Nx 520.52 -Ny 368.05 -Nz 0.00 -Ne 99.999974 -Nl RTR -Nw --- -Ma 0 -Md 0 -Ms 0 -Mt 0 -Is 10.255 -Id -1.255 -It AODV -Il 44 -If 0 -Ii 0 -Iv 1 -P aodv -Pt 0x1 -Ph 1 -Pd 10 -Pds 2 -Pl 4.000000 -Pc HELLO 
s -t 0.805003038 -Hs 14 -Hd -2 -Ni 14 -Nx 489.00 -Ny 794.00 -Nz 0.00 -Ne 99.999974 -Nl RTR -Nw --- -Ma 0 -Md 0 -Ms 0 -Mt 0 -Is 14.255 -Id -1.255 -It AODV -Il 44 -If 0 -Ii 0 -Iv 1 -P aodv -Pt 0x1 -Ph 1 -Pd 14 -Pds 2 -Pl 4.000000 -Pc HELLO 
s -t 0.821930690 -Hs 7 -Hd -2 -Ni 7 -Nx 334.00 -Ny 647.00 -Nz 0.00 -Ne 99.999945 -Nl RTR -Nw --- -Ma 0 -Md 0 -Ms 0 -Mt 0 -Is 7.255 -Id -1.255 -It AODV -Il 44 -If 0 -Ii 0 -Iv 1 -P aodv -Pt 0x1 -Ph 1 -Pd 7 -Pds 2 -Pl 4.000000 -Pc HELLO 
N -t 0.822526 -n 12 -e 99.999332
s -t 0.837069612 -Hs 1 -Hd -2 -Ni 1 -Nx 144.31 -Ny 664.85 -Nz 0.00 -Ne 99.999974 -Nl RTR -Nw --- -Ma 0 -Md 0 -Ms 0 -Mt 0 -Is 1.255 -Id -1.255 -It AODV -Il 44 -If 0 -Ii 0 -Iv 1 -P aodv -Pt 0x1 -Ph 1 -Pd 1 -Pds 2 -Pl 4.000000 -Pc HELLO 
s -t 0.867464663 -Hs 16 -Hd -2 -Ni 16 -Nx 631.22 -Ny 628.01 -Nz 0.00 -Ne 99.999377 -Nl RTR -Nw --- -Ma 0 -Md 0 -Ms 0 -Mt 0 -Is 16.255 -Id -1.255 -It AODV -Il 44 -If 0 -Ii 0 -Iv 1 -P aodv -Pt 0x1 -Ph 1 -Pd 16 -Pds 4 -Pl 4.000000 -Pc HELLO 
N -t 0.868080 -n 15 -e 99.999275
r -t 0.868920952 -Hs 15 -Hd -2 -Ni 15 -Nx 606.00 -Ny 711.00 -Nz 0.00 -Ne 99.999275 -Nl RTR -Nw --- -Ma 0 -Md ffffffff -Ms 10 -Mt 800 -Is 16.255 -Id -1.255 -It AODV -Il 44 -If 0 -Ii 0 -Iv 1 -P aodv -Pt 0x1 -Ph 1 -Pd 16 -Pds 4 -Pl 4.000000 -Pc HELLO 
s -t 0.910233467 -Hs 11 -Hd -2 -Ni 11 -Nx 568.35 -Ny 183.49 -Nz 0.00 -Ne 99.999974 -Nl RTR -Nw --- -Ma 0 -Md 0 -Ms 0 -Mt 0 -Is 11.255 -Id -1.255 -It AODV -Il 44 -If 0 -Ii 0 -Iv 1 -P aodv -Pt 0x1 -Ph 1 -Pd 11 -Pds 2 -Pl 4.000000 -Pc HELLO 
s -t 0.915417083 -Hs 8 -Hd -2 -Ni 8 -Nx 304.00 -Ny 777.00 -Nz 0.00 -Ne 99.999974 -Nl RTR -Nw --- -Ma 0 -Md 0 -Ms 0 -Mt 0 -Is 8.255 -Id -1.255 -It AODV -Il 44 -If 0 -Ii 0 -Iv 1 -P aodv -Pt 0x1 -Ph 1 -Pd 8 -Pds 2 -Pl 4.000000 -Pc HELLO 
s -t 0.924323762 -Hs 5 -Hd -2 -Ni 5 -Nx 295.22 -Ny 415.52 -Nz 0.00 -Ne 99.999974 -Nl RTR -Nw --- -Ma 0 -Md 0 -Ms 0 -Mt 0 -Is 5.255 -Id -1.255 -It AODV -Il 44 -If 0 -Ii 0 -Iv 1 -P aodv -Pt 0x1 -Ph 1 -Pd 5 -Pds 2 -Pl 4.000000 -Pc HELLO 
N -t 0.924659 -n 6 -e 99.999263
s -t 0.940542352 -Hs 17 -Hd -2 -Ni 17 -Nx 664.28 -Ny 350.40 -Nz 0.00 -Ne 99.999974 -Nl RTR -Nw --- -Ma 0 -Md 0 -Ms 0 -Mt 0 -Is 17.255 -Id -1.255 -It AODV -Il 44 -If 0 -Ii 0 -Iv 1 -P aodv -Pt 0x1 -Ph 1 -Pd 17 -Pds 2 -Pl 4.000000 -Pc HELLO 
s -t 0.984722302 -Hs 3 -Hd -2 -Ni 3 -Nx 147.00 -Ny 403.00 -Nz 0.00 -Ne 99.999974 -Nl RTR -Nw --- -Ma 0 -Md 0 -Ms 0 -Mt 0 -Is 3.255 -Id -1.255 -It AODV -Il 44 -If 0 -Ii 0 -Iv 1 -P aodv -Pt 0x1 -Ph 1 -Pd 3 -Pds 2 -Pl 4.000000 -Pc HELLO 
s -t 0.994260744 -Hs 0 -Hd -2 -Ni 0 -Nx 40.33 -Ny 526.73 -Nz 0.00 -Ne 99.999974 -Nl RTR -Nw --- -Ma 0 -Md 0 -Ms 0 -Mt 0 -Is 0.255 -Id -1.255 -It AODV -Il 44 -If 0 -Ii 0 -Iv 1 -P aodv -Pt 0x1 -Ph 1 -Pd 0 -Pds 2 -Pl 4.000000 -Pc HELLO 
s -t 1.030659586 -Hs 4 -Hd -2 -Ni 4 -Nx 227.92 -Ny 285.79 -Nz 0.00 -Ne 99.999974 -Nl RTR -Nw --- -Ma 0 -Md 0 -Ms 0 -Mt 0 -Is 4.255 -Id -1.255 -It AODV -Il 44 -If 0 -Ii 0 -Iv 1 -P aodv -Pt 0x1 -Ph 1 -Pd 4 -Pds 2 -Pl 4.000000 -Pc HELLO 
s -t 1.092010188 -Hs 18 -Hd -2 -Ni 18 -Nx 728.25 -Ny 164.48 -Nz 0.00 -Ne 99.999974 -Nl RTR -Nw --- -Ma 0 -Md 0 -Ms 0 -Mt 0 -Is 18.255 -Id -1.255 -It AODV -Il 44 -If 0 -Ii 0 -Iv 1 -P aodv -Pt 0x1 -Ph 1 -Pd 18 -Pds 2 -Pl 4.000000 -Pc HELLO 
s -t 1.139728587 -Hs 12 -Hd -2 -Ni 12 -Nx 349.00 -Ny 546.00 -Nz 0.00 -Ne 99.999332 -Nl RTR -Nw --- -Ma 0 -Md 0 -Ms 0 -Mt 0 -Is 12.255 -Id -1.255 -It AODV -Il 44 -If 0 -Ii 0 -Iv 1 -P aodv -Pt 0x1 -Ph 1 -Pd 12 -Pds 2 -Pl 4.000000 -Pc HELLO 
N -t 1.139824 -n 7 -e 99.999081
s -t 1.153430281 -Hs 9 -Hd -2 -Ni 9 -Nx 412.00 -Ny 194.00 -Nz 0.00 -Ne 99.999974 -Nl RTR -Nw --- -Ma 0 -Md 0 -Ms 0 -Mt 0 -Is 9.255 -Id -1.255 -It AODV -Il 44 -If 0 -Ii 0 -Iv 1 -P aodv -Pt 0x1 -Ph 1 -Pd 9 -Pds 2 -Pl 4.000000 -Pc HELLO 
s -t 1.170333110 -Hs 13 -Hd -2 -Ni 13 -Nx 466.00 -Ny 668.00 -Nz 0.00 -Ne 99.999974 -Nl RTR -Nw --- -Ma 0 -Md 0 -Ms 0 -Mt 0 -Is 13.255 -Id -1.255 -It AODV -Il 44 -If 0 -Ii 0 -Iv 1 -P aodv -Pt 0x1 -Ph 1 -Pd 13 -Pds 2 -Pl 4.000000 -Pc HELLO 
s -t 1.178046387 -Hs 20 -Hd -2 -Ni 20 -Nx 769.55 -Ny 441.33 -Nz 0.00 -Ne 99.999974 -Nl RTR -Nw --- -Ma 0 -Md 0 -Ms 0 -Mt 0 -Is 20.255 -Id -1.255 -It AODV -Il 44 -If 0 -Ii 0 -Iv 1 -P aodv -Pt 0x1 -Ph 1 -Pd 20 -Pds 2 -Pl 4.000000 -Pc HELLO 
s -t 1.233511045 -Hs 19 -Hd -2 -Ni 19 -Nx 882.00 -Ny 264.00 -Nz 0.00 -Ne 99.999974 -Nl RTR -Nw --- -Ma 0 -Md 0 -Ms 0 -Mt 0 -Is 19.255 -Id -1.255 -It AODV -Il 44 -If 0 -Ii 0 -Iv 1 -P aodv -Pt 0x1 -Ph 1 -Pd 19 -Pds 2 -Pl 4.000000 -Pc HELLO 
s -t 1.235909719 -Hs 2 -Hd -2 -Ni 2 -Nx 207.26 -Ny 532.25 -Nz 0.00 -Ne 99.999974 -Nl RTR -Nw --- -Ma 0 -Md 0 -Ms 0 -Mt 0 -Is 2.255 -Id -1.255 -It AODV -Il 44 -If 0 -Ii 0 -Iv 1 -P aodv -Pt 0x1 -Ph 1 -Pd 2 -Pds 2 -Pl 4.000000 -Pc HELLO 
M 1.25000 3 (147.00, 403.00, 0.00), (179.00, 333.00), 20.00
M 1.25000 7 (334.00, 647.00, 0.00), (274.00, 487.00), 20.00
M 1.25000 8 (304.00, 777.00, 0.00), (494.00, 475.00), 20.00
M 1.25000 9 (412.00, 194.00, 0.00), (899.00, 757.00), 25.00
M 1.25000 12 (349.00, 546.00, 0.00), (397.00, 647.00), 25.00
M 1.25000 13 (466.00, 668.00, 0.00), (748.00, 688.00), 25.00
M 1.25000 14 (489.00, 794.00, 0.00), (842.00, 623.00), 25.00
M 1.25000 15 (606.00, 711.00, 0.00), (678.00, 548.00), 25.00
M 1.25000 19 (882.00, 264.00, 0.00), (700.00, 350.00), 20.00
M 1.50000 6 (363.00, 335.00, 0.00), (505.00, 124.00), 20.00
s -t 1.522445780 -Hs 6 -Hd -2 -Ni 6 -Nx 363.25 -Ny 334.63 -Nz 0.00 -Ne 99.999263 -Nl RTR -Nw --- -Ma 0 -Md 0 -Ms 0 -Mt 0 -Is 6.255 -Id -1.255 -It AODV -Il 44 -If 0 -Ii 0 -Iv 1 -P aodv -Pt 0x1 -Ph 1 -Pd 6 -Pds 2 -Pl 4.000000 -Pc HELLO 
N -t 1.522821 -n 5 -e 99.998837
r -t 1.523662101 -Hs 5 -Hd -2 -Ni 5 -Nx 295.98 -Ny 403.56 -Nz 0.00 -Ne 99.998837 -Nl RTR -Nw --- -Ma 0 -Md ffffffff -Ms 6 -Mt 800 -Is 6.255 -Id -1.255 -It AODV -Il 44 -If 0 -Ii 0 -Iv 1 -P aodv -Pt 0x1 -Ph 1 -Pd 6 -Pds 2 -Pl 4.000000 -Pc HELLO 
s -t 1.569545440 -Hs 15 -Hd -2 -Ni 15 -Nx 609.23 -Ny 703.69 -Nz 0.00 -Ne 99.999275 -Nl RTR -Nw --- -Ma 0 -Md 0 -Ms 0 -Mt 0 -Is 15.255 -Id -1.255 -It AODV -Il 44 -If 0 -Ii 0 -Iv 1 -P aodv -Pt 0x1 -Ph 1 -Pd 15 -Pds 4 -Pl 4.000000 -Pc HELLO 
N -t 1.569821 -n 16 -e 99.998747
r -t 1.570661673 -Hs 16 -Hd -2 -Ni 16 -Nx 638.51 -Ny 640.03 -Nz 0.00 -Ne 99.998747 -Nl RTR -Nw --- -Ma 0 -Md ffffffff -Ms f -Mt 800 -Is 15.255 -Id -1.255 -It AODV -Il 44 -If 0 -Ii 0 -Iv 1 -P aodv -Pt 0x1 -Ph 1 -Pd 15 -Pds 4 -Pl 4.000000 -Pc HELLO 
s -t 1.693187492 -Hs 1 -Hd -2 -Ni 1 -Nx 157.15 -Ny 653.53 -Nz 0.00 -Ne 99.999353 -Nl RTR -Nw --- -Ma 0 -Md 0 -Ms 0 -Mt 0 -Is 1.255 -Id -1.255 -It AODV -Il 44 -If 0 -Ii 0 -Iv 1 -P aodv -Pt 0x1 -Ph 1 -Pd 1 -Pds 2 -Pl 4.000000 -Pc HELLO 
s -t 1.713326378 -Hs 16 -Hd -2 -Ni 16 -Nx 639.99 -Ny 642.47 -Nz 0.00 -Ne 99.998747 -Nl RTR -Nw --- -Ma 0 -Md 0 -Ms 0 -Mt 0 -Is 16.255 -Id -1.255 -It AODV -Il 44 -If 0 -Ii 0 -Iv 1 -P aodv -Pt 0x1 -Ph 1 -Pd 16 -Pds 4 -Pl 4.000000 -Pc HELLO 
N -t 1.714002 -n 15 -e 99.998619
r -t 1.714842594 -Hs 15 -Hd -2 -Ni 15 -Nx 610.70 -Ny 700.37 -Nz 0.00 -Ne 99.998619 -Nl RTR -Nw --- -Ma 0 -Md ffffffff -Ms 10 -Mt 800 -Is 16.255 -Id -1.255 -It AODV -Il 44 -If 0 -Ii 0 -Iv 1 -P aodv -Pt 0x1 -Ph 1 -Pd 16 -Pds 4 -Pl 4.000000 -Pc HELLO 
s -t 1.720412336 -Hs 7 -Hd -2 -Ni 7 -Nx 330.70 -Ny 638.19 -Nz 0.00 -Ne 99.999081 -Nl RTR -Nw --- -Ma 0 -Md 0 -Ms 0 -Mt 0 -Is 7.255 -Id -1.255 -It AODV -Il 44 -If 0 -Ii 0 -Iv 1 -P aodv -Pt 0x1 -Ph 1 -Pd 7 -Pds 2 -Pl 4.000000 -Pc HELLO 
N -t 1.720488 -n 12 -e 99.998640
r -t 1.721328619 -Hs 12 -Hd -2 -Ni 12 -Nx 354.06 -Ny 556.64 -Nz 0.00 -Ne 99.998640 -Nl RTR -Nw --- -Ma 0 -Md ffffffff -Ms 7 -Mt 800 -Is 7.255 -Id -1.255 -It AODV -Il 44 -If 0 -Ii 0 -Iv 1 -P aodv -Pt 0x1 -Ph 1 -Pd 7 -Pds 2 -Pl 4.000000 -Pc HELLO 
s -t 1.743564260 -Hs 8 -Hd -2 -Ni 8 -Nx 309.26 -Ny 768.64 -Nz 0.00 -Ne 99.999298 -Nl RTR -Nw --- -Ma 0 -Md 0 -Ms 0 -Mt 0 -Is 8.255 -Id -1.255 -It AODV -Il 44 -If 0 -Ii 0 -Iv 1 -P aodv -Pt 0x1 -Ph 1 -Pd 8 -Pds 2 -Pl 4.000000 -Pc HELLO 
s -t 1.904711543 -Hs 14 -Hd -2 -Ni 14 -Nx 503.73 -Ny 786.86 -Nz 0.00 -Ne 99.999376 -Nl RTR -Nw --- -Ma 0 -Md 0 -Ms 0 -Mt 0 -Is 14.255 -Id -1.255 -It AODV -Il 44 -If 0 -Ii 0 -Iv 1 -P aodv -Pt 0x1 -Ph 1 -Pd 14 -Pds 2 -Pl 4.000000 -Pc HELLO 
s -t 1.939758284 -Hs 20 -Hd -2 -Ni 20 -Nx 784.78 -Ny 441.91 -Nz 0.00 -Ne 99.999111 -Nl RTR -Nw --- -Ma 0 -Md 0 -Ms 0 -Mt 0 -Is 20.255 -Id -1.255 -It AODV -Il 44 -If 0 -Ii 0 -Iv 1 -P aodv -Pt 0x1 -Ph 1 -Pd 20 -Pds 2 -Pl 4.000000 -Pc HELLO 
s -t 1.950400017 -Hs 10 -Hd -2 -Ni 10 -Nx 526.63 -Ny 396.45 -Nz 0.00 -Ne 99.999388 -Nl RTR -Nw --- -Ma 0 -Md 0 -Ms 0 -Mt 0 -Is 10.255 -Id -1.255 -It AODV -Il 44 -If 0 -Ii 0 -Iv 1 -P aodv -Pt 0x1 -Ph 1 -Pd 10 -Pds 2 -Pl 4.000000 -Pc HELLO 
s -t 2.009901589 -Hs 5 -Hd -2 -Ni 5 -Nx 296.60 -Ny 393.85 -Nz 0.00 -Ne 99.998837 -Nl RTR -Nw --- -Ma 0 -Md 0 -Ms 0 -Mt 0 -Is 5.255 -Id -1.255 -It AODV -Il 44 -If 0 -Ii 0 -Iv 1 -P aodv -Pt 0x1 -Ph 1 -Pd 5 -Pds 4 -Pl 4.000000 -Pc HELLO 
N -t 2.010397 -n 6 -e 99.998437
r -t 2.011237918 -Hs 6 -Hd -2 -Ni 6 -Nx 368.71 -Ny 326.52 -Nz 0.00 -Ne 99.998437 -Nl RTR -Nw --- -Ma 0 -Md ffffffff -Ms 5 -Mt 800 -Is 5.255 -Id -1.255 -It AODV -Il 44 -If 0 -Ii 0 -Iv 1 -P aodv -Pt 0x1 -Ph 1 -Pd 5 -Pds 4 -Pl 4.000000 -Pc HELLO 
s -t 2.025891702 -Hs 11 -Hd -2 -Ni 11 -Nx 567.25 -Ny 211.36 -Nz 0.00 -Ne 99.999301 -Nl RTR -Nw --- -Ma 0 -Md 0 -Ms 0 -Mt 0 -Is 11.255 -Id -1.255 -It AODV -Il 44 -If 0 -Ii 0 -Iv 1 -P aodv -Pt 0x1 -Ph 1 -Pd 11 -Pds 2 -Pl 4.000000 -Pc HELLO 
s -t 2.027078777 -Hs 2 -Hd -2 -Ni 2 -Nx 212.03 -Ny 517.16 -Nz 0.00 -Ne 99.999069 -Nl RTR -Nw --- -Ma 0 -Md 0 -Ms 0 -Mt 0 -Is 2.255 -Id -1.255 -It AODV -Il 44 -If 0 -Ii 0 -Iv 1 -P aodv -Pt 0x1 -Ph 1 -Pd 2 -Pds 2 -Pl 4.000000 -Pc HELLO 
s -t 2.031498289 -Hs 13 -Hd -2 -Ni 13 -Nx 485.49 -Ny 669.38 -Nz 0.00 -Ne 99.999116 -Nl RTR -Nw --- -Ma 0 -Md 0 -Ms 0 -Mt 0 -Is 13.255 -Id -1.255 -It AODV -Il 44 -If 0 -Ii 0 -Iv 1 -P aodv -Pt 0x1 -Ph 1 -Pd 13 -Pds 2 -Pl 4.000000 -Pc HELLO 
s -t 2.039338570 -Hs 0 -Hd -2 -Ni 0 -Nx 58.83 -Ny 517.02 -Nz 0.00 -Ne 99.999241 -Nl RTR -Nw --- -Ma 0 -Md 0 -Ms 0 -Mt 0 -Is 0.255 -Id -1.255 -It AODV -Il 44 -If 0 -Ii 0 -Iv 1 -P aodv -Pt 0x1 -Ph 1 -Pd 0 -Pds 2 -Pl 4.000000 -Pc HELLO 
s -t 2.045212993 -Hs 19 -Hd -2 -Ni 19 -Nx 867.62 -Ny 270.79 -Nz 0.00 -Ne 99.999071 -Nl RTR -Nw --- -Ma 0 -Md 0 -Ms 0 -Mt 0 -Is 19.255 -Id -1.255 -It AODV -Il 44 -If 0 -Ii 0 -Iv 1 -P aodv -Pt 0x1 -Ph 1 -Pd 19 -Pds 2 -Pl 4.000000 -Pc HELLO 
s -t 2.071281234 -Hs 17 -Hd -2 -Ni 17 -Nx 654.06 -Ny 370.57 -Nz 0.00 -Ne 99.999280 -Nl RTR -Nw --- -Ma 0 -Md 0 -Ms 0 -Mt 0 -Is 17.255 -Id -1.255 -It AODV -Il 44 -If 0 -Ii 0 -Iv 1 -P aodv -Pt 0x1 -Ph 1 -Pd 17 -Pds 2 -Pl 4.000000 -Pc HELLO 
s -t 2.134027940 -Hs 9 -Hd -2 -Ni 9 -Nx 426.46 -Ny 210.71 -Nz 0.00 -Ne 99.999128 -Nl RTR -Nw --- -Ma 0 -Md 0 -Ms 0 -Mt 0 -Is 9.255 -Id -1.255 -It AODV -Il 44 -If 0 -Ii 0 -Iv 1 -P aodv -Pt 0x1 -Ph 1 -Pd 9 -Pds 2 -Pl 4.000000 -Pc HELLO 
s -t 2.157483613 -Hs 4 -Hd -2 -Ni 4 -Nx 219.57 -Ny 264.86 -Nz 0.00 -Ne 99.999215 -Nl RTR -Nw --- -Ma 0 -Md 0 -Ms 0 -Mt 0 -Is 4.255 -Id -1.255 -It AODV -Il 44 -If 0 -Ii 0 -Iv 1 -P aodv -Pt 0x1 -Ph 1 -Pd 4 -Pds 2 -Pl 4.000000 -Pc HELLO 
s -t 2.202387774 -Hs 18 -Hd -2 -Ni 18 -Nx 712.39 -Ny 180.02 -Nz 0.00 -Ne 99.999172 -Nl RTR -Nw --- -Ma 0 -Md 0 -Ms 0 -Mt 0 -Is 18.255 -Id -1.255 -It AODV -Il 44 -If 0 -Ii 0 -Iv 1 -P aodv -Pt 0x1 -Ph 1 -Pd 18 -Pds 2 -Pl 4.000000 -Pc HELLO 
s -t 2.218429811 -Hs 3 -Hd -2 -Ni 3 -Nx 155.05 -Ny 385.38 -Nz 0.00 -Ne 99.999248 -Nl RTR -Nw --- -Ma 0 -Md 0 -Ms 0 -Mt 0 -Is 3.255 -Id -1.255 -It AODV -Il 44 -If 0 -Ii 0 -Iv 1 -P aodv -Pt 0x1 -Ph 1 -Pd 3 -Pds 2 -Pl 4.000000 -Pc HELLO 
s -t 2.340289173 -Hs 12 -Hd -2 -Ni 12 -Nx 360.70 -Ny 570.62 -Nz 0.00 -Ne 99.998640 -Nl RTR -Nw --- -Ma 0 -Md 0 -Ms 0 -Mt 0 -Is 12.255 -Id -1.255 -It AODV -Il 44 -If 0 -Ii 0 -Iv 1 -P aodv -Pt 0x1 -Ph 1 -Pd 12 -Pds 4 -Pl 4.000000 -Pc HELLO 
N -t 2.340724 -n 7 -e 99.998173
r -t 2.341565391 -Hs 7 -Hd -2 -Ni 7 -Nx 326.33 -Ny 626.56 -Nz 0.00 -Ne 99.998173 -Nl RTR -Nw --- -Ma 0 -Md ffffffff -Ms c -Mt 800 -Is 12.255 -Id -1.255 -It AODV -Il 44 -If 0 -Ii 0 -Iv 1 -P aodv -Pt 0x1 -Ph 1 -Pd 12 -Pds 4 -Pl 4.000000 -Pc HELLO 
s -t 2.400000000 -Hs 19 -Hd -2 -Ni 19 -Nx 861.20 -Ny 273.83 -Nz 0.00 -Ne 99.998468 -Nl AGT -Nw --- -Ma 0 -Md 0 -Ms 0 -Mt 0 -Is 19.0 -Id 18.0 -It cbr -Il 1000 -If 1 -Ii 0 -Iv 32 -Pn cbr -Pi 0 -Pf 0 -Po 0 
r -t 2.400000000 -Hs 19 -Hd -2 -Ni 19 -Nx 861.20 -Ny 273.83 -Nz 0.00 -Ne 99.998468 -Nl RTR -Nw --- -Ma 0 -Md 0 -Ms 0 -Mt 0 -Is 19.0 -Id 18.0 -It cbr -Il 1000 -If 1 -Ii 0 -Iv 32 -Pn cbr -Pi 0 -Pf 0 -Po 0 
s -t 2.400000000 -Hs 19 -Hd -2 -Ni 19 -Nx 861.20 -Ny 273.83 -Nz 0.00 -Ne 99.998468 -Nl RTR -Nw --- -Ma 0 -Md 0 -Ms 0 -Mt 0 -Is 19.255 -Id -1.255 -It AODV -Il 48 -If 0 -Ii 0 -Iv 30 -P aodv -Pt 0x2 -Ph 1 -Pb 1 -Pd 18 -Pds 0 -Ps 19 -Pss 4 -Pc REQUEST 
s -t 2.417857143 -Hs 19 -Hd -2 -Ni 19 -Nx 860.88 -Ny 273.98 -Nz 0.00 -Ne 99.998190 -Nl AGT -Nw --- -Ma 0 -Md 0 -Ms 0 -Mt 0 -Is 19.0 -Id 18.0 -It cbr -Il 1000 -If 1 -Ii 1 -Iv 32 -Pn cbr -Pi 1 -Pf 0 -Po 0 
r -t 2.417857143 -Hs 19 -Hd -2 -Ni 19 -Nx 860.88 -Ny 273.98 -Nz 0.00 -Ne 99.998190 -Nl RTR -Nw --- -Ma 0 -Md 0 -Ms 0 -Mt 0 -Is 19.0 -Id 18.0 -It cbr -Il 1000 -If 1 -Ii 1 -Iv 32 -Pn cbr -Pi 1 -Pf 0 -Po 0 
s -t 2.435714286 -Hs 19 -Hd -2 -Ni 19 -Nx 860.56 -Ny 274.13 -Nz 0.00 -Ne 99.998190 -Nl AGT -Nw --- -Ma 0 -Md 0 -Ms 0 -Mt 0 -Is 19.0 -Id 18.0 -It cbr -Il 1000 -If 1 -Ii 2 -Iv 32 -Pn cbr -Pi 2 -Pf 0 -Po 0 
r -t 2.435714286 -Hs 19 -Hd -2 -Ni 19 -Nx 860.56 -Ny 274.13 -Nz 0.00 -Ne 99.998190 -Nl RTR -Nw --- -Ma 0 -Md 0 -Ms 0 -Mt 0 -Is 19.0 -Id 18.0 -It cbr -Il 1000 -If 1 -Ii 2 -Iv 32 -Pn cbr -Pi 2 -Pf 0 -Po 0 
s -t 2.453571429 -Hs 19 -Hd -2 -Ni 19 -Nx 860.24 -Ny 274.28 -Nz 0.00 -Ne 99.998190 -Nl AGT -Nw --- -Ma 0 -Md 0 -Ms 0 -Mt 0 -Is 19.0 -Id 18.0 -It cbr -Il 1000 -If 1 -Ii 3 -Iv 32 -Pn cbr -Pi 3 -Pf 0 -Po 0 
r -t 2.453571429 -Hs 19 -Hd -2 -Ni 19 -Nx 860.24 -Ny 274.28 -Nz 0.00 -Ne 99.998190 -Nl RTR -Nw --- -Ma 0 -Md 0 -Ms 0 -Mt 0 -Is 19.0 -Id 18.0 -It cbr -Il 1000 -If 1 -Ii 3 -Iv 32 -Pn cbr -Pi 3 -Pf 0 -Po 0 
s -t 2.471428571 -Hs 19 -Hd -2 -Ni 19 -Nx 859.91 -Ny 274.44 -Nz 0.00 -Ne 99.998190 -Nl AGT -Nw --- -Ma 0 -Md 0 -Ms 0 -Mt 0 -Is 19.0 -Id 18.0 -It cbr -Il 1000 -If 1 -Ii 4 -Iv 32 -Pn cbr -Pi 4 -Pf 0 -Po 0 
r -t 2.471428571 -Hs 19 -Hd -2 -Ni 19 -Nx 859.91 -Ny 274.44 -Nz 0.00 -Ne 99.998190 -Nl RTR -Nw --- -Ma 0 -Md 0 -Ms 0 -Mt 0 -Is 19.0 -Id 18.0 -It cbr -Il 1000 -If 1 -Ii 4 -Iv 32 -Pn cbr -Pi 4 -Pf 0 -Po 0 
s -t 2.471718042 -Hs 6 -Hd -2 -Ni 6 -Nx 373.85 -Ny 318.88 -Nz 0.00 -Ne 99.998437 -Nl RTR -Nw --- -Ma 0 -Md 0 -Ms 0 -Mt 0 -Is 6.255 -Id -1.255 -It AODV -Il 44 -If 0 -Ii 0 -Iv 1 -P aodv -Pt 0x1 -Ph 1 -Pd 6 -Pds 4 -Pl 4.000000 -Pc HELLO 
N -t 2.471833 -n 5 -e 99.998108
s -t 2.489285714 -Hs 19 -Hd -2 -Ni 19 -Nx 859.59 -Ny 274.59 -Nz 0.00 -Ne 99.998190 -Nl AGT -Nw --- -Ma 0 -Md 0 -Ms 0 -Mt 0 -Is 19.0 -Id 18.0 -It cbr -Il 1000 -If 1 -Ii 5 -Iv 32 -Pn cbr -Pi 5 -Pf 0 -Po 0 
r -t 2.489285714 -Hs 19 -Hd -2 -Ni 19 -Nx 859.59 -Ny 274.59 -Nz 0.00 -Ne 99.998190 -Nl RTR -Nw --- -Ma 0 -Md 0 -Ms 0 -Mt 0 -Is 19.0 -Id 18.0 -It cbr -Il 1000 -If 1 -Ii 5 -Iv 32 -Pn cbr -Pi 5 -Pf 0 -Po 0 
s -t 2.507142857 -Hs 19 -Hd -2 -Ni 19 -Nx 859.27 -Ny 274.74 -Nz 0.00 -Ne 99.998190 -Nl AGT -Nw --- -Ma 0 -Md 0 -Ms 0 -Mt 0 -Is 19.0 -Id 18.0 -It cbr -Il 1000 -If 1 -Ii 6 -Iv 32 -Pn cbr -Pi 6 -Pf 0 -Po 0 
r -t 2.507142857 -Hs 19 -Hd -2 -Ni 19 -Nx 859.27 -Ny 274.74 -Nz 0.00 -Ne 99.998190 -Nl RTR -Nw --- -Ma 0 -Md 0 -Ms 0 -Mt 0 -Is 19.0 -Id 18.0 -It cbr -Il 1000 -If 1 -Ii 6 -Iv 32 -Pn cbr -Pi 6 -Pf 0 -Po 0 
s -t 2.525000000 -Hs 19 -Hd -2 -Ni 19 -Nx 858.94 -Ny 274.89 -Nz 0.00 -Ne 99.998190 -Nl AGT -Nw --- -Ma 0 -Md 0 -Ms 0 -Mt 0 -Is 19.0 -Id 18.0 -It cbr -Il 1000 -If 1 -Ii 7 -Iv 32 -Pn cbr -Pi 7 -Pf 0 -Po 0 
r -t 2.525000000 -Hs 19 -Hd -2 -Ni 19 -Nx 858.94 -Ny 274.89 -Nz 0.00 -Ne 99.998190 -Nl RTR -Nw --- -Ma 0 -Md 0 -Ms 0 -Mt 0 -Is 19.0 -Id 18.0 -It cbr -Il 1000 -If 1 -Ii 7 -Iv 32 -Pn cbr -Pi 7 -Pf 0 -Po 0 
s -t 2.531712577 -Hs 15 -Hd -2 -Ni 15 -Nx 618.95 -Ny 681.69 -Nz 0.00 -Ne 99.998619 -Nl RTR -Nw --- -Ma 0 -Md 0 -Ms 0 -Mt 0 -Is 15.255 -Id -1.255 -It AODV -Il 44 -If 0 -Ii 0 -Iv 1 -P aodv -Pt 0x1 -Ph 1 -Pd 15 -Pds 4 -Pl 4.000000 -Pc HELLO 
N -t 2.532288 -n 16 -e 99.998009
r -t 2.533128707 -Hs 16 -Hd -2 -Ni 16 -Nx 648.50 -Ny 656.49 -Nz 0.00 -Ne 99.998009 -Nl RTR -Nw --- -Ma 0 -Md ffffffff -Ms f -Mt 800 -Is 15.255 -Id -1.255 -It AODV -Il 44 -If 0 -Ii 0 -Iv 1 -P aodv -Pt 0x1 -Ph 1 -Pd 15 -Pds 4 -Pl 4.000000 -Pc HELLO 
s -t 2.542857143 -Hs 19 -Hd -2 -Ni 19 -Nx 858.62 -Ny 275.05 -Nz 0.00 -Ne 99.998190 -Nl AGT -Nw --- -Ma 0 -Md 0 -Ms 0 -Mt 0 -Is 19.0 -Id 18.0 -It cbr -Il 1000 -If 1 -Ii 8 -Iv 32 -Pn cbr -Pi 8 -Pf 0 -Po 0 
r -t 2.542857143 -Hs 19 -Hd -2 -Ni 19 -Nx 858.62 -Ny 275.05 -Nz 0.00 -Ne 99.998190 -Nl RTR -Nw --- -Ma 0 -Md 0 -Ms 0 -Mt 0 -Is 19.0 -Id 18.0 -It cbr -Il 1000 -If 1 -Ii 8 -Iv 32 -Pn cbr -Pi 8 -Pf 0 -Po 0 
s -t 2.557972684 -Hs 1 -Hd -2 -Ni 1 -Nx 170.13 -Ny 642.09 -Nz 0.00 -Ne 99.998719 -Nl RTR -Nw --- -Ma 0 -Md 0 -Ms 0 -Mt 0 -Is 1.255 -Id -1.255 -It AODV -Il 44 -If 0 -Ii 0 -Iv 1 -P aodv -Pt 0x1 -Ph 1 -Pd 1 -Pds 2 -Pl 4.000000 -Pc HELLO 
s -t 2.560714286 -Hs 19 -Hd -2 -Ni 19 -Nx 858.30 -Ny 275.20 -Nz 0.00 -Ne 99.998190 -Nl AGT -Nw --- -Ma 0 -Md 0 -Ms 0 -Mt 0 -Is 19.0 -Id 18.0 -It cbr -Il 1000 -If 1 -Ii 9 -Iv 32 -Pn cbr -Pi 9 -Pf 0 -Po 0 
r -t 2.560714286 -Hs 19 -Hd -2 -Ni 19 -Nx 858.30 -Ny 275.20 -Nz 0.00 -Ne 99.998190 -Nl RTR -Nw --- -Ma 0 -Md 0 -Ms 0 -Mt 0 -Is 19.0 -Id 18.0 -It cbr -Il 1000 -If 1 -Ii 9 -Iv 32 -Pn cbr -Pi 9 -Pf 0 -Po 0 
s -t 2.578571429 -Hs 19 -Hd -2 -Ni 19 -Nx 857.98 -Ny 275.35 -Nz 0.00 -Ne 99.998190 -Nl AGT -Nw --- -Ma 0 -Md 0 -Ms 0 -Mt 0 -Is 19.0 -Id 18.0 -It cbr -Il 1000 -If 1 -Ii 10 -Iv 32 -Pn cbr -Pi 10 -Pf 0 -Po 0 
r -t 2.578571429 -Hs 19 -Hd -2 -Ni 19 -Nx 857.98 -Ny 275.35 -Nz 0.00 -Ne 99.998190 -Nl RTR -Nw --- -Ma 0 -Md 0 -Ms 0 -Mt 0 -Is 19.0 -Id 18.0 -It cbr -Il 1000 -If 1 -Ii 10 -Iv 32 -Pn cbr -Pi 10 -Pf 0 -Po 0 
s -t 2.596428571 -Hs 19 -Hd -2 -Ni 19 -Nx 857.65 -Ny 275.50 -Nz 0.00 -Ne 99.998190 -Nl AGT -Nw --- -Ma 0 -Md 0 -Ms 0 -Mt 0 -Is 19.0 -Id 18.0 -It cbr -Il 1000 -If 1 -Ii 11 -Iv 32 -Pn cbr -Pi 11 -Pf 0 -Po 0 
r -t 2.596428571 -Hs 19 -Hd -2 -Ni 19 -Nx 857.65 -Ny 275.50 -Nz 0.00 -Ne 99.998190 -Nl RTR -Nw --- -Ma 0 -Md 0 -Ms 0 -Mt 0 -Is 19.0 -Id 18.0 -It cbr -Il 1000 -If 1 -Ii 11 -Iv 32 -Pn cbr -Pi 11 -Pf 0 -Po 0 
s -t 2.614285714 -Hs 19 -Hd -2 -Ni 19 -Nx 857.33 -Ny 275.66 -Nz 0.00 -Ne 99.998190 -Nl AGT -Nw --- -Ma 0 -Md 0 -Ms 0 -Mt 0 -Is 19.0 -Id 18.0 -It cbr -Il 1000 -If 1 -Ii 12 -Iv 32 -Pn cbr -Pi 12 -Pf 0 -Po 0 
r -t 2.614285714 -Hs 19 -Hd -2 -Ni 19 -Nx 857.33 -Ny 275.66 -Nz 0.00 -Ne 99.998190 -Nl RTR -Nw --- -Ma 0 -Md 0 -Ms 0 -Mt 0 -Is 19.0 -Id 18.0 -It cbr -Il 1000 -If 1 -Ii 12 -Iv 32 -Pn cbr -Pi 12 -Pf 0 -Po 0 
s -t 2.632142857 -Hs 19 -Hd -2 -Ni 19 -Nx 857.01 -Ny 275.81 -Nz 0.00 -Ne 99.998190 -Nl AGT -Nw --- -Ma 0 -Md 0 -Ms 0 -Mt 0 -Is 19.0 -Id 18.0 -It cbr -Il 1000 -If 1 -Ii 13 -Iv 32 -Pn cbr -Pi 13 -Pf 0 -Po 0 
r -t 2.632142857 -Hs 19 -Hd -2 -Ni 19 -Nx 857.01 -Ny 275.81 -Nz 0.00 -Ne 99.998190 -Nl RTR -Nw --- -Ma 0 -Md 0 -Ms 0 -Mt 0 -Is 19.0 -Id 18.0 -It cbr -Il 1000 -If 1 -Ii 13 -Iv 32 -Pn cbr -Pi 13 -Pf 0 -Po 0 
s -t 2.650000000 -Hs 19 -Hd -2 -Ni 19 -Nx 856.68 -Ny 275.96 -Nz 0.00 -Ne 99.998190 -Nl AGT -Nw --- -Ma 0 -Md 0 -Ms 0 -Mt 0 -Is 19.0 -Id 18.0 -It cbr -Il 1000 -If 1 -Ii 14 -Iv 32 -Pn cbr -Pi 14 -Pf 0 -Po 0 
r -t 2.650000000 -Hs 19 -Hd -2 -Ni 19 -Nx 856.68 -Ny 275.96 -Nz 0.00 -Ne 99.998190 -Nl RTR -Nw --- -Ma 0 -Md 0 -Ms 0 -Mt 0 -Is 19.0 -Id 18.0 -It cbr -Il 1000 -If 1 -Ii 14 -Iv 32 -Pn cbr -Pi 14 -Pf 0 -Po 0 
s -t 2.667857143 -Hs 19 -Hd -2 -Ni 19 -Nx 856.36 -Ny 276.12 -Nz 0.00 -Ne 99.998190 -Nl AGT -Nw --- -Ma 0 -Md 0 -Ms 0 -Mt 0 -Is 19.0 -Id 18.0 -It cbr -Il 1000 -If 1 -Ii 15 -Iv 32 -Pn cbr -Pi 15 -Pf 0 -Po 0 
r -t 2.667857143 -Hs 19 -Hd -2 -Ni 19 -Nx 856.36 -Ny 276.12 -Nz 0.00 -Ne 99.998190 -Nl RTR -Nw --- -Ma 0 -Md 0 -Ms 0 -Mt 0 -Is 19.0 -Id 18.0 -It cbr -Il 1000 -If 1 -Ii 15 -Iv 32 -Pn cbr -Pi 15 -Pf 0 -Po 0 
s -t 2.685714286 -Hs 19 -Hd -2 -Ni 19 -Nx 856.04 -Ny 276.27 -Nz 0.00 -Ne 99.998190 -Nl AGT -Nw --- -Ma 0 -Md 0 -Ms 0 -Mt 0 -Is 19.0 -Id 18.0 -It cbr -Il 1000 -If 1 -Ii 16 -Iv 32 -Pn cbr -Pi 16 -Pf 0 -Po 0 
r -t 2.685714286 -Hs 19 -Hd -2 -Ni 19 -Nx 856.04 -Ny 276.27 -Nz 0.00 -Ne 99.998190 -Nl RTR -Nw --- -Ma 0 -Md 0 -Ms 0 -Mt 0 -Is 19.0 -Id 18.0 -It cbr -Il 1000 -If 1 -Ii 16 -Iv 32 -Pn cbr -Pi 16 -Pf 0 -Po 0 
s -t 2.703571429 -Hs 19 -Hd -2 -Ni 19 -Nx 855.72 -Ny 276.42 -Nz 0.00 -Ne 99.998190 -Nl AGT -Nw --- -Ma 0 -Md 0 -Ms 0 -Mt 0 -Is 19.0 -Id 18.0 -It cbr -Il 1000 -If 1 -Ii 17 -Iv 32 -Pn cbr -Pi 17 -Pf 0 -Po 0 
r -t 2.703571429 -Hs 19 -Hd -2 -Ni 19 -Nx 855.72 -Ny 276.42 -Nz 0.00 -Ne 99.998190 -Nl RTR -Nw --- -Ma 0 -Md 0 -Ms 0 -Mt 0 -Is 19.0 -Id 18.0 -It cbr -Il 1000 -If 1 -Ii 17 -Iv 32 -Pn cbr -Pi 17 -Pf 0 -Po 0 
s -t 2.708754516 -Hs 7 -Hd -2 -Ni 7 -Nx 323.76 -Ny 619.68 -Nz 0.00 -Ne 99.998173 -Nl RTR -Nw --- -Ma 0 -Md 0 -Ms 0 -Mt 0 -Is 7.255 -Id -1.255 -It AODV -Il 44 -If 0 -Ii 0 -Iv 1 -P aodv -Pt 0x1 -Ph 1 -Pd 7 -Pds 4 -Pl 4.000000 -Pc HELLO 
N -t 2.708970 -n 12 -e 99.997883
r -t 2.709810709 -Hs 12 -Hd -2 -Ni 12 -Nx 364.67 -Ny 578.96 -Nz 0.00 -Ne 99.997883 -Nl RTR -Nw --- -Ma 0 -Md ffffffff -Ms 7 -Mt 800 -Is 7.255 -Id -1.255 -It AODV -Il 44 -If 0 -Ii 0 -Iv 1 -P aodv -Pt 0x1 -Ph 1 -Pd 7 -Pds 4 -Pl 4.000000 -Pc HELLO 
s -t 2.721428571 -Hs 19 -Hd -2 -Ni 19 -Nx 855.39 -Ny 276.57 -Nz 0.00 -Ne 99.998190 -Nl AGT -Nw --- -Ma 0 -Md 0 -Ms 0 -Mt 0 -Is 19.0 -Id 18.0 -It cbr -Il 1000 -If 1 -Ii 18 -Iv 32 -Pn cbr -Pi 18 -Pf 0 -Po 0 
r -t 2.721428571 -Hs 19 -Hd -2 -Ni 19 -Nx 855.39 -Ny 276.57 -Nz 0.00 -Ne 99.998190 -Nl RTR -Nw --- -Ma 0 -Md 0 -Ms 0 -Mt 0 -Is 19.0 -Id 18.0 -It cbr -Il 1000 -If 1 -Ii 18 -Iv 32 -Pn cbr -Pi 18 -Pf 0 -Po 0 
s -t 2.733115023 -Hs 8 -Hd -2 -Ni 8 -Nx 319.80 -Ny 751.89 -Nz 0.00 -Ne 99.998683 -Nl RTR -Nw --- -Ma 0 -Md 0 -Ms 0 -Mt 0 -Is 8.255 -Id -1.255 -It AODV -Il 44 -If 0 -Ii 0 -Iv 1 -P aodv -Pt 0x1 -Ph 1 -Pd 8 -Pds 2 -Pl 4.000000 -Pc HELLO 
s -t 2.739285714 -Hs 19 -Hd -2 -Ni 19 -Nx 855.07 -Ny 276.73 -Nz 0.00 -Ne 99.998190 -Nl AGT -Nw --- -Ma 0 -Md 0 -Ms 0 -Mt 0 -Is 19.0 -Id 18.0 -It cbr -Il 1000 -If 1 -Ii 19 -Iv 32 -Pn cbr -Pi 19 -Pf 0 -Po 0 
r -t 2.739285714 -Hs 19 -Hd -2 -Ni 19 -Nx 855.07 -Ny 276.73 -Nz 0.00 -Ne 99.998190 -Nl RTR -Nw --- -Ma 0 -Md 0 -Ms 0 -Mt 0 -Is 19.0 -Id 18.0 -It cbr -Il 1000 -If 1 -Ii 19 -Iv 32 -Pn cbr -Pi 19 -Pf 0 -Po 0 
s -t 2.757142857 -Hs 19 -Hd -2 -Ni 19 -Nx 854.75 -Ny 276.88 -Nz 0.00 -Ne 99.998190 -Nl AGT -Nw --- -Ma 0 -Md 0 -Ms 0 -Mt 0 -Is 19.0 -Id 18.0 -It cbr -Il 1000 -If 1 -Ii 20 -Iv 32 -Pn cbr -Pi 20 -Pf 0 -Po 0 
r -t 2.757142857 -Hs 19 -Hd -2 -Ni 19 -Nx 854.75 -Ny 276.88 -Nz 0.00 -Ne 99.998190 -Nl RTR -Nw --- -Ma 0 -Md 0 -Ms 0 -Mt 0 -Is 19.0 -Id 18.0 -It cbr -Il 1000 -If 1 -Ii 20 -Iv 32 -Pn cbr -Pi 20 -Pf 0 -Po 0 