v 0 eval {set sim_annotation {MOBILE NODE MOVEMENTS}}
M 0.20000 2 (201.00, 552.00, 0.00), (309.00, 211.00), 20.00
M 0.20000 18 (741.00, 152.00, 0.00), (159.00, 722.00), 20.00
M 0.25000 11 (569.00, 167.00, 0.00), (551.00, 624.00), 25.00
M 0.50000 10 (519.00, 361.00, 0.00), (598.00, 728.00), 25.00
M 0.75000 0 (36.00, 529.00, 0.00), (379.00, 349.00), 20.00
M 0.75000 1 (143.00, 666.00, 0.00), (556.00, 302.00), 20.00
M 0.75000 4 (230.00, 291.00, 0.00), (139.00, 63.00), 20.00
M 0.75000 5 (295.00, 419.00, 0.00), (320.00, 27.00), 20.00
M 0.75000 16 (630.00, 626.00, 0.00), (741.00, 809.00), 20.00
M 0.75000 17 (666.00, 347.00, 0.00), (437.00, 799.00), 20.00
M 0.75000 20 (761.00, 441.00, 0.00), (839.00, 444.00), 20.00
M 1.25000 3 (147.00, 403.00, 0.00), (179.00, 333.00), 20.00
M 1.25000 7 (334.00, 647.00, 0.00), (274.00, 487.00), 20.00
M 1.25000 8 (304.00, 777.00, 0.00), (494.00, 475.00), 20.00
M 1.25000 9 (412.00, 194.00, 0.00), (899.00, 757.00), 25.00
M 1.25000 12 (349.00, 546.00, 0.00), (397.00, 647.00), 25.00
M 1.25000 13 (466.00, 668.00, 0.00), (748.00, 688.00), 25.00
M 1.25000 14 (489.00, 794.00, 0.00), (842.00, 623.00), 25.00
M 1.25000 15 (606.00, 711.00, 0.00), (678.00, 548.00), 25.00
M 1.25000 19 (882.00, 264.00, 0.00), (700.00, 350.00), 20.00
M 1.50000 6 (363.00, 335.00, 0.00), (505.00, 124.00), 20.00
s -t 2.400000000 -Hs 19 -Hd -2 -Ni 19 -Nx 861.20 -Ny 273.83 -Nz 0.00 -Ne 100.000000 -Nl AGT -Nw --- -Ma 0 -Md 0 -Ms 0 -Mt 0 -Is 19.0 -Id 18.0 -It cbr -Il 1000 -If 1 -Ii 0 -Iv 32 -Pn cbr -Pi 0 -Pf 0 -Po 0 
r -t 2.400000000 -Hs 19 -Hd -2 -Ni 19 -Nx 861.20 -Ny 273.83 -Nz 0.00 -Ne 100.000000 -Nl RTR -Nw --- -Ma 0 -Md 0 -Ms 0 -Mt 0 -Is 19.0 -Id 18.0 -It cbr -Il 1000 -If 1 -Ii 0 -Iv 32 -Pn cbr -Pi 0 -Pf 0 -Po 0 
s -t 2.400000000 -Hs 19 -Hd -2 -Ni 19 -Nx 861.20 -Ny 273.83 -Nz 0.00 -Ne 100.000000 -Nl RTR -Nw --- -Ma 0 -Md 0 -Ms 0 -Mt 0 -Is 19.255 -Id -1.255 -It MYAODV -Il 48 -If 0 -Ii 0 -Iv 30 -P myaodv -Pt 0x2 -Ph 1 -Pb 1 -Pd 18 -Pds 0 -Ps 19 -Pss 4 -Pc REQUEST 
s -t 2.417857143 -Hs 19 -Hd -2 -Ni 19 -Nx 860.88 -Ny 273.98 -Nz 0.00 -Ne 99.998275 -Nl AGT -Nw --- -Ma 0 -Md 0 -Ms 0 -Mt 0 -Is 19.0 -Id 18.0 -It cbr -Il 1000 -If 1 -Ii 1 -Iv 32 -Pn cbr -Pi 1 -Pf 0 -Po 0 
r -t 2.417857143 -Hs 19 -Hd -2 -Ni 19 -Nx 860.88 -Ny 273.98 -Nz 0.00 -Ne 99.998275 -Nl RTR -Nw --- -Ma 0 -Md 0 -Ms 0 -Mt 0 -Is 19.0 -Id 18.0 -It cbr -Il 1000 -If 1 -Ii 1 -Iv 32 -Pn cbr -Pi 1 -Pf 0 -Po 0 
s -t 2.435714286 -Hs 19 -Hd -2 -Ni 19 -Nx 860.56 -Ny 274.13 -Nz 0.00 -Ne 99.998275 -Nl AGT -Nw --- -Ma 0 -Md 0 -Ms 0 -Mt 0 -Is 19.0 -Id 18.0 -It cbr -Il 1000 -If 1 -Ii 2 -Iv 32 -Pn cbr -Pi 2 -Pf 0 -Po 0 
r -t 2.435714286 -Hs 19 -Hd -2 -Ni 19 -Nx 860.56 -Ny 274.13 -Nz 0.00 -Ne 99.998275 -Nl RTR -Nw --- -Ma 0 -Md 0 -Ms 0 -Mt 0 -Is 19.0 -Id 18.0 -It cbr -Il 1000 -If 1 -Ii 2 -Iv 32 -Pn cbr -Pi 2 -Pf 0 -Po 0 
s -t 2.453571429 -Hs 19 -Hd -2 -Ni 19 -Nx 860.24 -Ny 274.28 -Nz 0.00 -Ne 99.998275 -Nl AGT -Nw --- -Ma 0 -Md 0 -Ms 0 -Mt 0 -Is 19.0 -Id 18.0 -It cbr -Il 1000 -If 1 -Ii 3 -Iv 32 -Pn cbr -Pi 3 -Pf 0 -Po 0 
r -t 2.453571429 -Hs 19 -Hd -2 -Ni 19 -Nx 860.24 -Ny 274.28 -Nz 0.00 -Ne 99.998275 -Nl RTR -Nw --- -Ma 0 -Md 0 -Ms 0 -Mt 0 -Is 19.0 -Id 18.0 -It cbr -Il 1000 -If 1 -Ii 3 -Iv 32 -Pn cbr -Pi 3 -Pf 0 -Po 0 
s -t 2.471428571 -Hs 19 -Hd -2 -Ni 19 -Nx 859.91 -Ny 274.44 -Nz 0.00 -Ne 99.998275 -Nl AGT -Nw --- -Ma 0 -Md 0 -Ms 0 -Mt 0 -Is 19.0 -Id 18.0 -It cbr -Il 1000 -If 1 -Ii 4 -Iv 32 -Pn cbr -Pi 4 -Pf 0 -Po 0 
r -t 2.471428571 -Hs 19 -Hd -2 -Ni 19 -Nx 859.91 -Ny 274.44 -Nz 0.00 -Ne 99.998275 -Nl RTR -Nw --- -Ma 0 -Md 0 -Ms 0 -Mt 0 -Is 19.0 -Id 18.0 -It cbr -Il 1000 -If 1 -Ii 4 -Iv 32 -Pn cbr -Pi 4 -Pf 0 -Po 0 
s -t 2.489285714 -Hs 19 -Hd -2 -Ni 19 -Nx 859.59 -Ny 274.59 -Nz 0.00 -Ne 99.998275 -Nl AGT -Nw --- -Ma 0 -Md 0 -Ms 0 -Mt 0 -Is 19.0 -Id 18.0 -It cbr -Il 1000 -If 1 -Ii 5 -Iv 32 -Pn cbr -Pi 5 -Pf 0 -Po 0 
r -t 2.489285714 -Hs 19 -Hd -2 -Ni 19 -Nx 859.59 -Ny 274.59 -Nz 0.00 -Ne 99.998275 -Nl RTR -Nw --- -Ma 0 -Md 0 -Ms 0 -Mt 0 -Is 19.0 -Id 18.0 -It cbr -Il 1000 -If 1 -Ii 5 -Iv 32 -Pn cbr -Pi 5 -Pf 0 -Po 0 
s -t 2.507142857 -Hs 19 -Hd -2 -Ni 19 -Nx 859.27 -Ny 274.74 -Nz 0.00 -Ne 99.998275 -Nl AGT -Nw --- -Ma 0 -Md 0 -Ms 0 -Mt 0 -Is 19.0 -Id 18.0 -It cbr -Il 1000 -If 1 -Ii 6 -Iv 32 -Pn cbr -Pi 6 -Pf 0 -Po 0 
r -t 2.507142857 -Hs 19 -Hd -2 -Ni 19 -Nx 859.27 -Ny 274.74 -Nz 0.00 -Ne 99.998275 -Nl RTR -Nw --- -Ma 0 -Md 0 -Ms 0 -Mt 0 -Is 19.0 -Id 18.0 -It cbr -Il 1000 -If 1 -Ii 6 -Iv 32 -Pn cbr -Pi 6 -Pf 0 -Po 0 
s -t 2.525000000 -Hs 19 -Hd -2 -Ni 19 -Nx 858.94 -Ny 274.89 -Nz 0.00 -Ne 99.998275 -Nl AGT -Nw --- -Ma 0 -Md 0 -Ms 0 -Mt 0 -Is 19.0 -Id 18.0 -It cbr -Il 1000 -If 1 -Ii 7 -Iv 32 -Pn cbr -Pi 7 -Pf 0 -Po 0 
r -t 2.525000000 -Hs 19 -Hd -2 -Ni 19 -Nx 858.94 -Ny 274.89 -Nz 0.00 -Ne 99.998275 -Nl RTR -Nw --- -Ma 0 -Md 0 -Ms 0 -Mt 0 -Is 19.0 -Id 18.0 -It cbr -Il 1000 -If 1 -Ii 7 -Iv 32 -Pn cbr -Pi 7 -Pf 0 -Po 0 
s -t 2.542857143 -Hs 19 -Hd -2 -Ni 19 -Nx 858.62 -Ny 275.05 -Nz 0.00 -Ne 99.998275 -Nl AGT -Nw --- -Ma 0 -Md 0 -Ms 0 -Mt 0 -Is 19.0 -Id 18.0 -It cbr -Il 1000 -If 1 -Ii 8 -Iv 32 -Pn cbr -Pi 8 -Pf 0 -Po 0 
r -t 2.542857143 -Hs 19 -Hd -2 -Ni 19 -Nx 858.62 -Ny 275.05 -Nz 0.00 -Ne 99.998275 -Nl RTR -Nw --- -Ma 0 -Md 0 -Ms 0 -Mt 0 -Is 19.0 -Id 18.0 -It cbr -Il 1000 -If 1 -Ii 8 -Iv 32 -Pn cbr -Pi 8 -Pf 0 -Po 0 
s -t 2.560714286 -Hs 19 -Hd -2 -Ni 19 -Nx 858.30 -Ny 275.20 -Nz 0.00 -Ne 99.998275 -Nl AGT -Nw --- -Ma 0 -Md 0 -Ms 0 -Mt 0 -Is 19.0 -Id 18.0 -It cbr -Il 1000 -If 1 -Ii 9 -Iv 32 -Pn cbr -Pi 9 -Pf 0 -Po 0 
r -t 2.560714286 -Hs 19 -Hd -2 -Ni 19 -Nx 858.30 -Ny 275.20 -Nz 0.00 -Ne 99.998275 -Nl RTR -Nw --- -Ma 0 -Md 0 -Ms 0 -Mt 0 -Is 19.0 -Id 18.0 -It cbr -Il 1000 -If 1 -Ii 9 -Iv 32 -Pn cbr -Pi 9 -Pf 0 -Po 0 
s -t 2.578571429 -Hs 19 -Hd -2 -Ni 19 -Nx 857.98 -Ny 275.35 -Nz 0.00 -Ne 99.998275 -Nl AGT -Nw --- -Ma 0 -Md 0 -Ms 0 -Mt 0 -Is 19.0 -Id 18.0 -It cbr -Il 1000 -If 1 -Ii 10 -Iv 32 -Pn cbr -Pi 10 -Pf 0 -Po 0 
r -t 2.578571429 -Hs 19 -Hd -2 -Ni 19 -Nx 857.98 -Ny 275.35 -Nz 0.00 -Ne 99.998275 -Nl RTR -Nw --- -Ma 0 -Md 0 -Ms 0 -Mt 0 -Is 19.0 -Id 18.0 -It cbr -Il 1000 -If 1 -Ii 10 -Iv 32 -Pn cbr -Pi 10 -Pf 0 -Po 0 
s -t 2.596428571 -Hs 19 -Hd -2 -Ni 19 -Nx 857.65 -Ny 275.50 -Nz 0.00 -Ne 99.998275 -Nl AGT -Nw --- -Ma 0 -Md 0 -Ms 0 -Mt 0 -Is 19.0 -Id 18.0 -It cbr -Il 1000 -If 1 -Ii 11 -Iv 32 -Pn cbr -Pi 11 -Pf 0 -Po 0 
r -t 2.596428571 -Hs 19 -Hd -2 -Ni 19 -Nx 857.65 -Ny 275.50 -Nz 0.00 -Ne 99.998275 -Nl RTR -Nw --- -Ma 0 -Md 0 -Ms 0 -Mt 0 -Is 19.0 -Id 18.0 -It cbr -Il 1000 -If 1 -Ii 11 -Iv 32 -Pn cbr -Pi 11 -Pf 0 -Po 0 
s -t 2.614285714 -Hs 19 -Hd -2 -Ni 19 -Nx 857.33 -Ny 275.66 -Nz 0.00 -Ne 99.998275 -Nl AGT -Nw --- -Ma 0 -Md 0 -Ms 0 -Mt 0 -Is 19.0 -Id 18.0 -It cbr -Il 1000 -If 1 -Ii 12 -Iv 32 -Pn cbr -Pi 12 -Pf 0 -Po 0 
r -t 2.614285714 -Hs 19 -Hd -2 -Ni 19 -Nx 857.33 -Ny 275.66 -Nz 0.00 -Ne 99.998275 -Nl RTR -Nw --- -Ma 0 -Md 0 -Ms 0 -Mt 0 -Is 19.0 -Id 18.0 -It cbr -Il 1000 -If 1 -Ii 12 -Iv 32 -Pn cbr -Pi 12 -Pf 0 -Po 0 
s -t 2.632142857 -Hs 19 -Hd -2 -Ni 19 -Nx 857.01 -Ny 275.81 -Nz 0.00 -Ne 99.998275 -Nl AGT -Nw --- -Ma 0 -Md 0 -Ms 0 -Mt 0 -Is 19.0 -Id 18.0 -It cbr -Il 1000 -If 1 -Ii 13 -Iv 32 -Pn cbr -Pi 13 -Pf 0 -Po 0 
r -t 2.632142857 -Hs 19 -Hd -2 -Ni 19 -Nx 857.01 -Ny 275.81 -Nz 0.00 -Ne 99.998275 -Nl RTR -Nw --- -Ma 0 -Md 0 -Ms 0 -Mt 0 -Is 19.0 -Id 18.0 -It cbr -Il 1000 -If 1 -Ii 13 -Iv 32 -Pn cbr -Pi 13 -Pf 0 -Po 0 
s -t 2.650000000 -Hs 19 -Hd -2 -Ni 19 -Nx 856.68 -Ny 275.96 -Nz 0.00 -Ne 99.998275 -Nl AGT -Nw --- -Ma 0 -Md 0 -Ms 0 -Mt 0 -Is 19.0 -Id 18.0 -It cbr -Il 1000 -If 1 -Ii 14 -Iv 32 -Pn cbr -Pi 14 -Pf 0 -Po 0 
r -t 2.650000000 -Hs 19 -Hd -2 -Ni 19 -Nx 856.68 -Ny 275.96 -Nz 0.00 -Ne 99.998275 -Nl RTR -Nw --- -Ma 0 -Md 0 -Ms 0 -Mt 0 -Is 19.0 -Id 18.0 -It cbr -Il 1000 -If 1 -Ii 14 -Iv 32 -Pn cbr -Pi 14 -Pf 0 -Po 0 
s -t 2.667857143 -Hs 19 -Hd -2 -Ni 19 -Nx 856.36 -Ny 276.12 -Nz 0.00 -Ne 99.998275 -Nl AGT -Nw --- -Ma 0 -Md 0 -Ms 0 -Mt 0 -Is 19.0 -Id 18.0 -It cbr -Il 1000 -If 1 -Ii 15 -Iv 32 -Pn cbr -Pi 15 -Pf 0 -Po 0 
r -t 2.667857143 -Hs 19 -Hd -2 -Ni 19 -Nx 856.36 -Ny 276.12 -Nz 0.00 -Ne 99.998275 -Nl RTR -Nw --- -Ma 0 -Md 0 -Ms 0 -Mt 0 -Is 19.0 -Id 18.0 -It cbr -Il 1000 -If 1 -Ii 15 -Iv 32 -Pn cbr -Pi 15 -Pf 0 -Po 0 
s -t 2.685714286 -Hs 19 -Hd -2 -Ni 19 -Nx 856.04 -Ny 276.27 -Nz 0.00 -Ne 99.998275 -Nl AGT -Nw --- -Ma 0 -Md 0 -Ms 0 -Mt 0 -Is 19.0 -Id 18.0 -It cbr -Il 1000 -If 1 -Ii 16 -Iv 32 -Pn cbr -Pi 16 -Pf 0 -Po 0 
r -t 2.685714286 -Hs 19 -Hd -2 -Ni 19 -Nx 856.04 -Ny 276.27 -Nz 0.00 -Ne 99.998275 -Nl RTR -Nw --- -Ma 0 -Md 0 -Ms 0 -Mt 0 -Is 19.0 -Id 18.0 -It cbr -Il 1000 -If 1 -Ii 16 -Iv 32 -Pn cbr -Pi 16 -Pf 0 -Po 0 
s -t 2.703571429 -Hs 19 -Hd -2 -Ni 19 -Nx 855.72 -Ny 276.42 -Nz 0.00 -Ne 99.998275 -Nl AGT -Nw --- -Ma 0 -Md 0 -Ms 0 -Mt 0 -Is 19.0 -Id 18.0 -It cbr -Il 1000 -If 1 -Ii 17 -Iv 32 -Pn cbr -Pi 17 -Pf 0 -Po 0 
r -t 2.703571429 -Hs 19 -Hd -2 -Ni 19 -Nx 855.72 -Ny 276.42 -Nz 0.00 -Ne 99.998275 -Nl RTR -Nw --- -Ma 0 -Md 0 -Ms 0 -Mt 0 -Is 19.0 -Id 18.0 -It cbr -Il 1000 -If 1 -Ii 17 -Iv 32 -Pn cbr -Pi 17 -Pf 0 -Po 0 
s -t 2.721428571 -Hs 19 -Hd -2 -Ni 19 -Nx 855.39 -Ny 276.57 -Nz 0.00 -Ne 99.998275 -Nl AGT -Nw --- -Ma 0 -Md 0 -Ms 0 -Mt 0 -Is 19.0 -Id 18.0 -It cbr -Il 1000 -If 1 -Ii 18 -Iv 32 -Pn cbr -Pi 18 -Pf 0 -Po 0 
r -t 2.721428571 -Hs 19 -Hd -2 -Ni 19 -Nx 855.39 -Ny 276.57 -Nz 0.00 -Ne 99.998275 -Nl RTR -Nw --- -Ma 0 -Md 0 -Ms 0 -Mt 0 -Is 19.0 -Id 18.0 -It cbr -Il 1000 -If 1 -Ii 18 -Iv 32 -Pn cbr -Pi 18 -Pf 0 -Po 0 
s -t 2.739285714 -Hs 19 -Hd -2 -Ni 19 -Nx 855.07 -Ny 276.73 -Nz 0.00 -Ne 99.998275 -Nl AGT -Nw --- -Ma 0 -Md 0 -Ms 0 -Mt 0 -Is 19.0 -Id 18.0 -It cbr -Il 1000 -If 1 -Ii 19 -Iv 32 -Pn cbr -Pi 19 -Pf 0 -Po 0 
r -t 2.739285714 -Hs 19 -Hd -2 -Ni 19 -Nx 855.07 -Ny 276.73 -Nz 0.00 -Ne 99.998275 -Nl RTR -Nw --- -Ma 0 -Md 0 -Ms 0 -Mt 0 -Is 19.0 -Id 18.0 -It cbr -Il 1000 -If 1 -Ii 19 -Iv 32 -Pn cbr -Pi 19 -Pf 0 -Po 0 
s -t 2.757142857 -Hs 19 -Hd -2 -Ni 19 -Nx 854.75 -Ny 276.88 -Nz 0.00 -Ne 99.998275 -Nl AGT -Nw --- -Ma 0 -Md 0 -Ms 0 -Mt 0 -Is 19.0 -Id 18.0 -It cbr -Il 1000 -If 1 -Ii 20 -Iv 32 -Pn cbr -Pi 20 -Pf 0 -Po 0 
r -t 2.757142857 -Hs 19 -Hd -2 -Ni 19 -Nx 854.75 -Ny 276.88 -Nz 0.00 -Ne 99.998275 -Nl RTR -Nw --- -Ma 0 -Md 0 -Ms 0 -Mt 0 -Is 19.0 -Id 18.0 -It cbr -Il 1000 -If 1 -Ii 20 -Iv 32 -Pn cbr -Pi 20 -Pf 0 -Po 0 
s -t 2.775000000 -Hs 19 -Hd -2 -Ni 19 -Nx 854.42 -Ny 277.03 -Nz 0.00 -Ne 99.998275 -Nl AGT -Nw --- -Ma 0 -Md 0 -Ms 0 -Mt 0 -Is 19.0 -Id 18.0 -It cbr -Il 1000 -If 1 -Ii 21 -Iv 32 -Pn cbr -Pi 21 -Pf 0 -Po 0 
r -t 2.775000000 -Hs 19 -Hd -2 -Ni 19 -Nx 854.42 -Ny 277.03 -Nz 0.00 -Ne 99.998275 -Nl RTR -Nw --- -Ma 0 -Md 0 -Ms 0 -Mt 0 -Is 19.0 -Id 18.0 -It cbr -Il 1000 -If 1 -Ii 21 -Iv 32 -Pn cbr -Pi 21 -Pf 0 -Po 0 
s -t 2.792857143 -Hs 19 -Hd -2 -Ni 19 -Nx 854.10 -Ny 277.18 -Nz 0.00 -Ne 99.998275 -Nl AGT -Nw --- -Ma 0 -Md 0 -Ms 0 -Mt 0 -Is 19.0 -Id 18.0 -It cbr -Il 1000 -If 1 -Ii 22 -Iv 32 -Pn cbr -Pi 22 -Pf 0 -Po 0 
r -t 2.792857143 -Hs 19 -Hd -2 -Ni 19 -Nx 854.10 -Ny 277.18 -Nz 0.00 -Ne 99.998275 -Nl RTR -Nw --- -Ma 0 -Md 0 -Ms 0 -Mt 0 -Is 19.0 -Id 18.0 -It cbr -Il 1000 -If 1 -Ii 22 -Iv 32 -Pn cbr -Pi 22 -Pf 0 -Po 0 
s -t 2.810714286 -Hs 19 -Hd -2 -Ni 19 -Nx 853.78 -Ny 277.34 -Nz 0.00 -Ne 99.998275 -Nl AGT -Nw --- -Ma 0 -Md 0 -Ms 0 -Mt 0 -Is 19.0 -Id 18.0 -It cbr -Il 1000 -If 1 -Ii 23 -Iv 32 -Pn cbr -Pi 23 -Pf 0 -Po 0 
r -t 2.810714286 -Hs 19 -Hd -2 -Ni 19 -Nx 853.78 -Ny 277.34 -Nz 0.00 -Ne 99.998275 -Nl RTR -Nw --- -Ma 0 -Md 0 -Ms 0 -Mt 0 -Is 19.0 -Id 18.0 -It cbr -Il 1000 -If 1 -Ii 23 -Iv 32 -Pn cbr -Pi 23 -Pf 0 -Po 0 
s -t 2.828571429 -Hs 19 -Hd -2 -Ni 19 -Nx 853.45 -Ny 277.49 -Nz 0.00 -Ne 99.998275 -Nl AGT -Nw --- -Ma 0 -Md 0 -Ms 0 -Mt 0 -Is 19.0 -Id 18.0 -It cbr -Il 1000 -If 1 -Ii 24 -Iv 32 -Pn cbr -Pi 24 -Pf 0 -Po 0 
r -t 2.828571429 -Hs 19 -Hd -2 -Ni 19 -Nx 853.45 -Ny 277.49 -Nz 0.00 -Ne 99.998275 -Nl RTR -Nw --- -Ma 0 -Md 0 -Ms 0 -Mt 0 -Is 19.0 -Id 18.0 -It cbr -Il 1000 -If 1 -Ii 24 -Iv 32 -Pn cbr -Pi 24 -Pf 0 -Po 0 
s -t 2.846428571 -Hs 19 -Hd -2 -Ni 19 -Nx 853.13 -Ny 277.64 -Nz 0.00 -Ne 99.998275 -Nl AGT -Nw --- -Ma 0 -Md 0 -Ms 0 -Mt 0 -Is 19.0 -Id 18.0 -It cbr -Il 1000 -If 1 -Ii 25 -Iv 32 -Pn cbr -Pi 25 -Pf 0 -Po 0 
r -t 2.846428571 -Hs 19 -Hd -2 -Ni 19 -Nx 853.13 -Ny 277.64 -Nz 0.00 -Ne 99.998275 -Nl RTR -Nw --- -Ma 0 -Md 0 -Ms 0 -Mt 0 -Is 19.0 -Id 18.0 -It cbr -Il 1000 -If 1 -Ii 25 -Iv 32 -Pn cbr -Pi 25 -Pf 0 -Po 0 
s -t 2.864285714 -Hs 19 -Hd -2 -Ni 19 -Nx 852.81 -Ny 277.79 -Nz 0.00 -Ne 99.998275 -Nl AGT -Nw --- -Ma 0 -Md 0 -Ms 0 -Mt 0 -Is 19.0 -Id 18.0 -It cbr -Il 1000 -If 1 -Ii 26 -Iv 32 -Pn cbr -Pi 26 -Pf 0 -Po 0 
r -t 2.864285714 -Hs 19 -Hd -2 -Ni 19 -Nx 852.81 -Ny 277.79 -Nz 0.00 -Ne 99.998275 -Nl RTR -Nw --- -Ma 0 -Md 0 -Ms 0 -Mt 0 -Is 19.0 -Id 18.0 -It cbr -Il 1000 -If 1 -Ii 26 -Iv 32 -Pn cbr -Pi 26 -Pf 0 -Po 0 
s -t 2.882142857 -Hs 19 -Hd -2 -Ni 19 -Nx 852.49 -Ny 277.95 -Nz 0.00 -Ne 99.998275 -Nl AGT -Nw --- -Ma 0 -Md 0 -Ms 0 -Mt 0 -Is 19.0 -Id 18.0 -It cbr -Il 1000 -If 1 -Ii 27 -Iv 32 -Pn cbr -Pi 27 -Pf 0 -Po 0 
r -t 2.882142857 -Hs 19 -Hd -2 -Ni 19 -Nx 852.49 -Ny 277.95 -Nz 0.00 -Ne 99.998275 -Nl RTR -Nw --- -Ma 0 -Md 0 -Ms 0 -Mt 0 -Is 19.0 -Id 18.0 -It cbr -Il 1000 -If 1 -Ii 27 -Iv 32 -Pn cbr -Pi 27 -Pf 0 -Po 0 
s -t 2.900000000 -Hs 19 -Hd -2 -Ni 19 -Nx 852.16 -Ny 278.10 -Nz 0.00 -Ne 99.998275 -Nl AGT -Nw --- -Ma 0 -Md 0 -Ms 0 -Mt 0 -Is 19.0 -Id 18.0 -It cbr -Il 1000 -If 1 -Ii 28 -Iv 32 -Pn cbr -Pi 28 -Pf 0 -Po 0 
r -t 2.900000000 -Hs 19 -Hd -2 -Ni 19 -Nx 852.16 -Ny 278.10 -Nz 0.00 -Ne 99.998275 -Nl RTR -Nw --- -Ma 0 -Md 0 -Ms 0 -Mt 0 -Is 19.0 -Id 18.0 -It cbr -Il 1000 -If 1 -Ii 28 -Iv 32 -Pn cbr -Pi 28 -Pf 0 -Po 0 
s -t 2.917857143 -Hs 19 -Hd -2 -Ni 19 -Nx 851.84 -Ny 278.25 -Nz 0.00 -Ne 99.998275 -Nl AGT -Nw --- -Ma 0 -Md 0 -Ms 0 -Mt 0 -Is 19.0 -Id 18.0 -It cbr -Il 1000 -If 1 -Ii 29 -Iv 32 -Pn cbr -Pi 29 -Pf 0 -Po 0 
r -t 2.917857143 -Hs 19 -Hd -2 -Ni 19 -Nx 851.84 -Ny 278.25 -Nz 0.00 -Ne 99.998275 -Nl RTR -Nw --- -Ma 0 -Md 0 -Ms 0 -Mt 0 -Is 19.0 -Id 18.0 -It cbr -Il 1000 -If 1 -Ii 29 -Iv 32 -Pn cbr -Pi 29 -Pf 0 -Po 0 
s -t 2.935714286 -Hs 19 -Hd -2 -Ni 19 -Nx 851.52 -Ny 278.40 -Nz 0.00 -Ne 99.998275 -Nl AGT -Nw --- -Ma 0 -Md 0 -Ms 0 -Mt 0 -Is 19.0 -Id 18.0 -It cbr -Il 1000 -If 1 -Ii 30 -Iv 32 -Pn cbr -Pi 30 -Pf 0 -Po 0 
r -t 2.935714286 -Hs 19 -Hd -2 -Ni 19 -Nx 851.52 -Ny 278.40 -Nz 0.00 -Ne 99.998275 -Nl RTR -Nw --- -Ma 0 -Md 0 -Ms 0 -Mt 0 -Is 19.0 -Id 18.0 -It cbr -Il 1000 -If 1 -Ii 30 -Iv 32 -Pn cbr -Pi 30 -Pf 0 -Po 0 
s -t 2.953571429 -Hs 19 -Hd -2 -Ni 19 -Nx 851.19 -Ny 278.56 -Nz 0.00 -Ne 99.998275 -Nl AGT -Nw --- -Ma 0 -Md 0 -Ms 0 -Mt 0 -Is 19.0 -Id 18.0 -It cbr -Il 1000 -If 1 -Ii 31 -Iv 32 -Pn cbr -Pi 31 -Pf 0 -Po 0 
r -t 2.953571429 -Hs 19 -Hd -2 -Ni 19 -Nx 851.19 -Ny 278.56 -Nz 0.00 -Ne 99.998275 -Nl RTR -Nw --- -Ma 0 -Md 0 -Ms 0 -Mt 0 -Is 19.0 -Id 18.0 -It cbr -Il 1000 -If 1 -Ii 31 -Iv 32 -Pn cbr -Pi 31 -Pf 0 -Po 0 
s -t 2.971428571 -Hs 19 -Hd -2 -Ni 19 -Nx 850.87 -Ny 278.71 -Nz 0.00 -Ne 99.998275 -Nl AGT -Nw --- -Ma 0 -Md 0 -Ms 0 -Mt 0 -Is 19.0 -Id 18.0 -It cbr -Il 1000 -If 1 -Ii 32 -Iv 32 -Pn cbr -Pi 32 -Pf 0 -Po 0 
r -t 2.971428571 -Hs 19 -Hd -2 -Ni 19 -Nx 850.87 -Ny 278.71 -Nz 0.00 -Ne 99.998275 -Nl RTR -Nw --- -Ma 0 -Md 0 -Ms 0 -Mt 0 -Is 19.0 -Id 18.0 -It cbr -Il 1000 -If 1 -Ii 32 -Iv 32 -Pn cbr -Pi 32 -Pf 0 -Po 0 
s -t 2.989285714 -Hs 19 -Hd -2 -Ni 19 -Nx 850.55 -Ny 278.86 -Nz 0.00 -Ne 99.998275 -Nl AGT -Nw --- -Ma 0 -Md 0 -Ms 0 -Mt 0 -Is 19.0 -Id 18.0 -It cbr -Il 1000 -If 1 -Ii 33 -Iv 32 -Pn cbr -Pi 33 -Pf 0 -Po 0 
r -t 2.989285714 -Hs 19 -Hd -2 -Ni 19 -Nx 850.55 -Ny 278.86 -Nz 0.00 -Ne 99.998275 -Nl RTR -Nw --- -Ma 0 -Md 0 -Ms 0 -Mt 0 -Is 19.0 -Id 18.0 -It cbr -Il 1000 -If 1 -Ii 33 -Iv 32 -Pn cbr -Pi 33 -Pf 0 -Po 0 
s -t 3.007142857 -Hs 19 -Hd -2 -Ni 19 -Nx 850.23 -Ny 279.01 -Nz 0.00 -Ne 99.998275 -Nl AGT -Nw --- -Ma 0 -Md 0 -Ms 0 -Mt 0 -Is 19.0 -Id 18.0 -It cbr -Il 1000 -If 1 -Ii 34 -Iv 32 -Pn cbr -Pi 34 -Pf 0 -Po 0 
r -t 3.007142857 -Hs 19 -Hd -2 -Ni 19 -Nx 850.23 -Ny 279.01 -Nz 0.00 -Ne 99.998275 -Nl RTR -Nw --- -Ma 0 -Md 0 -Ms 0 -Mt 0 -Is 19.0 -Id 18.0 -It cbr -Il 1000 -If 1 -Ii 34 -Iv 32 -Pn cbr -Pi 34 -Pf 0 -Po 0 
s -t 3.025000000 -Hs 19 -Hd -2 -Ni 19 -Nx 849.90 -Ny 279.17 -Nz 0.00 -Ne 99.998275 -Nl AGT -Nw --- -Ma 0 -Md 0 -Ms 0 -Mt 0 -Is 19.0 -Id 18.0 -It cbr -Il 1000 -If 1 -Ii 35 -Iv 32 -Pn cbr -Pi 35 -Pf 0 -Po 0 
r -t 3.025000000 -Hs 19 -Hd -2 -Ni 19 -Nx 849.90 -Ny 279.17 -Nz 0.00 -Ne 99.998275 -Nl RTR -Nw --- -Ma 0 -Md 0 -Ms 0 -Mt 0 -Is 19.0 -Id 18.0 -It cbr -Il 1000 -If 1 -Ii 35 -Iv 32 -Pn cbr -Pi 35 -Pf 0 -Po 0 
s -t 3.042857143 -Hs 19 -Hd -2 -Ni 19 -Nx 849.58 -Ny 279.32 -Nz 0.00 -Ne 99.998275 -Nl AGT -Nw --- -Ma 0 -Md 0 -Ms 0 -Mt 0 -Is 19.0 -Id 18.0 -It cbr -Il 1000 -If 1 -Ii 36 -Iv 32 -Pn cbr -Pi 36 -Pf 0 -Po 0 
r -t 3.042857143 -Hs 19 -Hd -2 -Ni 19 -Nx 849.58 -Ny 279.32 -Nz 0.00 -Ne 99.998275 -Nl RTR -Nw --- -Ma 0 -Md 0 -Ms 0 -Mt 0 -Is 19.0 -Id 18.0 -It cbr -Il 1000 -If 1 -Ii 36 -Iv 32 -Pn cbr -Pi 36 -Pf 0 -Po 0 
s -t 3.060714286 -Hs 19 -Hd -2 -Ni 19 -Nx 849.26 -Ny 279.47 -Nz 0.00 -Ne 99.998275 -Nl AGT -Nw --- -Ma 0 -Md 0 -Ms 0 -Mt 0 -Is 19.0 -Id 18.0 -It cbr -Il 1000 -If 1 -Ii 37 -Iv 32 -Pn cbr -Pi 37 -Pf 0 -Po 0 
r -t 3.060714286 -Hs 19 -Hd -2 -Ni 19 -Nx 849.26 -Ny 279.47 -Nz 0.00 -Ne 99.998275 -Nl RTR -Nw --- -Ma 0 -Md 0 -Ms 0 -Mt 0 -Is 19.0 -Id 18.0 -It cbr -Il 1000 -If 1 -Ii 37 -Iv 32 -Pn cbr -Pi 37 -Pf 0 -Po 0 
s -t 3.078571429 -Hs 19 -Hd -2 -Ni 19 -Nx 848.93 -Ny 279.62 -Nz 0.00 -Ne 99.998275 -Nl AGT -Nw --- -Ma 0 -Md 0 -Ms 0 -Mt 0 -Is 19.0 -Id 18.0 -It cbr -Il 1000 -If 1 -Ii 38 -Iv 32 -Pn cbr -Pi 38 -Pf 0 -Po 0 
r -t 3.078571429 -Hs 19 -Hd -2 -Ni 19 -Nx 848.93 -Ny 279.62 -Nz 0.00 -Ne 99.998275 -Nl RTR -Nw --- -Ma 0 -Md 0 -Ms 0 -Mt 0 -Is 19.0 -Id 18.0 -It cbr -Il 1000 -If 1 -Ii 38 -Iv 32 -Pn cbr -Pi 38 -Pf 0 -Po 0 
s -t 3.096428571 -Hs 19 -Hd -2 -Ni 19 -Nx 848.61 -Ny 279.78 -Nz 0.00 -Ne 99.998275 -Nl AGT -Nw --- -Ma 0 -Md 0 -Ms 0 -Mt 0 -Is 19.0 -Id 18.0 -It cbr -Il 1000 -If 1 -Ii 39 -Iv 32 -Pn cbr -Pi 39 -Pf 0 -Po 0 
r -t 3.096428571 -Hs 19 -Hd -2 -Ni 19 -Nx 848.61 -Ny 279.78 -Nz 0.00 -Ne 99.998275 -Nl RTR -Nw --- -Ma 0 -Md 0 -Ms 0 -Mt 0 -Is 19.0 -Id 18.0 -It cbr -Il 1000 -If 1 -Ii 39 -Iv 32 -Pn cbr -Pi 39 -Pf 0 -Po 0 
s -t 3.114285714 -Hs 19 -Hd -2 -Ni 19 -Nx 848.29 -Ny 279.93 -Nz 0.00 -Ne 99.998275 -Nl AGT -Nw --- -Ma 0 -Md 0 -Ms 0 -Mt 0 -Is 19.0 -Id 18.0 -It cbr -Il 1000 -If 1 -Ii 40 -Iv 32 -Pn cbr -Pi 40 -Pf 0 -Po 0 
r -t 3.114285714 -Hs 19 -Hd -2 -Ni 19 -Nx 848.29 -Ny 279.93 -Nz 0.00 -Ne 99.998275 -Nl RTR -Nw --- -Ma 0 -Md 0 -Ms 0 -Mt 0 -Is 19.0 -Id 18.0 -It cbr -Il 1000 -If 1 -Ii 40 -Iv 32 -Pn cbr -Pi 40 -Pf 0 -Po 0 
s -t 3.132142857 -Hs 19 -Hd -2 -Ni 19 -Nx 847.97 -Ny 280.08 -Nz 0.00 -Ne 99.998275 -Nl AGT -Nw --- -Ma 0 -Md 0 -Ms 0 -Mt 0 -Is 19.0 -Id 18.0 -It cbr -Il 1000 -If 1 -Ii 41 -Iv 32 -Pn cbr -Pi 41 -Pf 0 -Po 0 
r -t 3.132142857 -Hs 19 -Hd -2 -Ni 19 -Nx 847.97 -Ny 280.08 -Nz 0.00 -Ne 99.998275 -Nl RTR -Nw --- -Ma 0 -Md 0 -Ms 0 -Mt 0 -Is 19.0 -Id 18.0 -It cbr -Il 1000 -If 1 -Ii 41 -Iv 32 -Pn cbr -Pi 41 -Pf 0 -Po 0 
s -t 3.150000000 -Hs 19 -Hd -2 -Ni 19 -Nx 847.64 -Ny 280.23 -Nz 0.00 -Ne 99.998275 -Nl AGT -Nw --- -Ma 0 -Md 0 -Ms 0 -Mt 0 -Is 19.0 -Id 18.0 -It cbr -Il 1000 -If 1 -Ii 42 -Iv 32 -Pn cbr -Pi 42 -Pf 0 -Po 0 
r -t 3.150000000 -Hs 19 -Hd -2 -Ni 19 -Nx 847.64 -Ny 280.23 -Nz 0.00 -Ne 99.998275 -Nl RTR -Nw --- -Ma 0 -Md 0 -Ms 0 -Mt 0 -Is 19.0 -Id 18.0 -It cbr -Il 1000 -If 1 -Ii 42 -Iv 32 -Pn cbr -Pi 42 -Pf 0 -Po 0 
s -t 3.167857143 -Hs 19 -Hd -2 -Ni 19 -Nx 847.32 -Ny 280.39 -Nz 0.00 -Ne 99.998275 -Nl AGT -Nw --- -Ma 0 -Md 0 -Ms 0 -Mt 0 -Is 19.0 -Id 18.0 -It cbr -Il 1000 -If 1 -Ii 43 -Iv 32 -Pn cbr -Pi 43 -Pf 0 -Po 0 
r -t 3.167857143 -Hs 19 -Hd -2 -Ni 19 -Nx 847.32 -Ny 280.39 -Nz 0.00 -Ne 99.998275 -Nl RTR -Nw --- -Ma 0 -Md 0 -Ms 0 -Mt 0 -Is 19.0 -Id 18.0 -It cbr -Il 1000 -If 1 -Ii 43 -Iv 32 -Pn cbr -Pi 43 -Pf 0 -Po 0 
s -t 3.185714286 -Hs 19 -Hd -2 -Ni 19 -Nx 847.00 -Ny 280.54 -Nz 0.00 -Ne 99.998275 -Nl AGT -Nw --- -Ma 0 -Md 0 -Ms 0 -Mt 0 -Is 19.0 -Id 18.0 -It cbr -Il 1000 -If 1 -Ii 44 -Iv 32 -Pn cbr -Pi 44 -Pf 0 -Po 0 
r -t 3.185714286 -Hs 19 -Hd -2 -Ni 19 -Nx 847.00 -Ny 280.54 -Nz 0.00 -Ne 99.998275 -Nl RTR -Nw --- -Ma 0 -Md 0 -Ms 0 -Mt 0 -Is 19.0 -Id 18.0 -It cbr -Il 1000 -If 1 -Ii 44 -Iv 32 -Pn cbr -Pi 44 -Pf 0 -Po 0 
s -t 3.203571429 -Hs 19 -Hd -2 -Ni 19 -Nx 846.67 -Ny 280.69 -Nz 0.00 -Ne 99.998275 -Nl AGT -Nw --- -Ma 0 -Md 0 -Ms 0 -Mt 0 -Is 19.0 -Id 18.0 -It cbr -Il 1000 -If 1 -Ii 45 -Iv 32 -Pn cbr -Pi 45 -Pf 0 -Po 0 
r -t 3.203571429 -Hs 19 -Hd -2 -Ni 19 -Nx 846.67 -Ny 280.69 -Nz 0.00 -Ne 99.998275 -Nl RTR -Nw --- -Ma 0 -Md 0 -Ms 0 -Mt 0 -Is 19.0 -Id 18.0 -It cbr -Il 1000 -If 1 -Ii 45 -Iv 32 -Pn cbr -Pi 45 -Pf 0 -Po 0 
s -t 3.221428571 -Hs 19 -Hd -2 -Ni 19 -Nx 846.35 -Ny 280.85 -Nz 0.00 -Ne 99.998275 -Nl AGT -Nw --- -Ma 0 -Md 0 -Ms 0 -Mt 0 -Is 19.0 -Id 18.0 -It cbr -Il 1000 -If 1 -Ii 46 -Iv 32 -Pn cbr -Pi 46 -Pf 0 -Po 0 
r -t 3.221428571 -Hs 19 -Hd -2 -Ni 19 -Nx 846.35 -Ny 280.85 -Nz 0.00 -Ne 99.998275 -Nl RTR -Nw --- -Ma 0 -Md 0 -Ms 0 -Mt 0 -Is 19.0 -Id 18.0 -It cbr -Il 1000 -If 1 -Ii 46 -Iv 32 -Pn cbr -Pi 46 -Pf 0 -Po 0 
s -t 3.239285714 -Hs 19 -Hd -2 -Ni 19 -Nx 846.03 -Ny 281.00 -Nz 0.00 -Ne 99.998275 -Nl AGT -Nw --- -Ma 0 -Md 0 -Ms 0 -Mt 0 -Is 19.0 -Id 18.0 -It cbr -Il 1000 -If 1 -Ii 47 -Iv 32 -Pn cbr -Pi 47 -Pf 0 -Po 0 
r -t 3.239285714 -Hs 19 -Hd -2 -Ni 19 -Nx 846.03 -Ny 281.00 -Nz 0.00 -Ne 99.998275 -Nl RTR -Nw --- -Ma 0 -Md 0 -Ms 0 -Mt 0 -Is 19.0 -Id 18.0 -It cbr -Il 1000 -If 1 -Ii 47 -Iv 32 -Pn cbr -Pi 47 -Pf 0 -Po 0 
s -t 3.257142857 -Hs 19 -Hd -2 -Ni 19 -Nx 845.71 -Ny 281.15 -Nz 0.00 -Ne 99.998275 -Nl AGT -Nw --- -Ma 0 -Md 0 -Ms 0 -Mt 0 -Is 19.0 -Id 18.0 -It cbr -Il 1000 -If 1 -Ii 48 -Iv 32 -Pn cbr -Pi 48 -Pf 0 -Po 0 
r -t 3.257142857 -Hs 19 -Hd -2 -Ni 19 -Nx 845.71 -Ny 281.15 -Nz 0.00 -Ne 99.998275 -Nl RTR -Nw --- -Ma 0 -Md 0 -Ms 0 -Mt 0 -Is 19.0 -Id 18.0 -It cbr -Il 1000 -If 1 -Ii 48 -Iv 32 -Pn cbr -Pi 48 -Pf 0 -Po 0 
s -t 3.275000000 -Hs 19 -Hd -2 -Ni 19 -Nx 845.38 -Ny 281.30 -Nz 0.00 -Ne 99.998275 -Nl AGT -Nw --- -Ma 0 -Md 0 -Ms 0 -Mt 0 -Is 19.0 -Id 18.0 -It cbr -Il 1000 -If 1 -Ii 49 -Iv 32 -Pn cbr -Pi 49 -Pf 0 -Po 0 
r -t 3.275000000 -Hs 19 -Hd -2 -Ni 19 -Nx 845.38 -Ny 281.30 -Nz 0.00 -Ne 99.998275 -Nl RTR -Nw --- -Ma 0 -Md 0 -Ms 0 -Mt 0 -Is 19.0 -Id 18.0 -It cbr -Il 1000 -If 1 -Ii 49 -Iv 32 -Pn cbr -Pi 49 -Pf 0 -Po 0 
s -t 3.292857143 -Hs 19 -Hd -2 -Ni 19 -Nx 845.06 -Ny 281.46 -Nz 0.00 -Ne 99.998275 -Nl AGT -Nw --- -Ma 0 -Md 0 -Ms 0 -Mt 0 -Is 19.0 -Id 18.0 -It cbr -Il 1000 -If 1 -Ii 50 -Iv 32 -Pn cbr -Pi 50 -Pf 0 -Po 0 
r -t 3.292857143 -Hs 19 -Hd -2 -Ni 19 -Nx 845.06 -Ny 281.46 -Nz 0.00 -Ne 99.998275 -Nl RTR -Nw --- -Ma 0 -Md 0 -Ms 0 -Mt 0 -Is 19.0 -Id 18.0 -It cbr -Il 1000 -If 1 -Ii 50 -Iv 32 -Pn cbr -Pi 50 -Pf 0 -Po 0 
s -t 3.310714286 -Hs 19 -Hd -2 -Ni 19 -Nx 844.74 -Ny 281.61 -Nz 0.00 -Ne 99.998275 -Nl AGT -Nw --- -Ma 0 -Md 0 -Ms 0 -Mt 0 -Is 19.0 -Id 18.0 -It cbr -Il 1000 -If 1 -Ii 51 -Iv 32 -Pn cbr -Pi 51 -Pf 0 -Po 0 
r -t 3.310714286 -Hs 19 -Hd -2 -Ni 19 -Nx 844.74 -Ny 281.61 -Nz 0.00 -Ne 99.998275 -Nl RTR -Nw --- -Ma 0 -Md 0 -Ms 0 -Mt 0 -Is 19.0 -Id 18.0 -It cbr -Il 1000 -If 1 -Ii 51 -Iv 32 -Pn cbr -Pi 51 -Pf 0 -Po 0 
s -t 3.328571429 -Hs 19 -Hd -2 -Ni 19 -Nx 844.41 -Ny 281.76 -Nz 0.00 -Ne 99.998275 -Nl AGT -Nw --- -Ma 0 -Md 0 -Ms 0 -Mt 0 -Is 19.0 -Id 18.0 -It cbr -Il 1000 -If 1 -Ii 52 -Iv 32 -Pn cbr -Pi 52 -Pf 0 -Po 0 
r -t 3.328571429 -Hs 19 -Hd -2 -Ni 19 -Nx 844.41 -Ny 281.76 -Nz 0.00 -Ne 99.998275 -Nl RTR -Nw --- -Ma 0 -Md 0 -Ms 0 -Mt 0 -Is 19.0 -Id 18.0 -It cbr -Il 1000 -If 1 -Ii 52 -Iv 32 -Pn cbr -Pi 52 -Pf 0 -Po 0 
s -t 3.346428571 -Hs 19 -Hd -2 -Ni 19 -Nx 844.09 -Ny 281.91 -Nz 0.00 -Ne 99.998275 -Nl AGT -Nw --- -Ma 0 -Md 0 -Ms 0 -Mt 0 -Is 19.0 -Id 18.0 -It cbr -Il 1000 -If 1 -Ii 53 -Iv 32 -Pn cbr -Pi 53 -Pf 0 -Po 0 
r -t 3.346428571 -Hs 19 -Hd -2 -Ni 19 -Nx 844.09 -Ny 281.91 -Nz 0.00 -Ne 99.998275 -Nl RTR -Nw --- -Ma 0 -Md 0 -Ms 0 -Mt 0 -Is 19.0 -Id 18.0 -It cbr -Il 1000 -If 1 -Ii 53 -Iv 32 -Pn cbr -Pi 53 -Pf 0 -Po 0 
s -t 3.364285714 -Hs 19 -Hd -2 -Ni 19 -Nx 843.77 -Ny 282.07 -Nz 0.00 -Ne 99.998275 -Nl AGT -Nw --- -Ma 0 -Md 0 -Ms 0 -Mt 0 -Is 19.0 -Id 18.0 -It cbr -Il 1000 -If 1 -Ii 54 -Iv 32 -Pn cbr -Pi 54 -Pf 0 -Po 0 
r -t 3.364285714 -Hs 19 -Hd -2 -Ni 19 -Nx 843.77 -Ny 282.07 -Nz 0.00 -Ne 99.998275 -Nl RTR -Nw --- -Ma 0 -Md 0 -Ms 0 -Mt 0 -Is 19.0 -Id 18.0 -It cbr -Il 1000 -If 1 -Ii 54 -Iv 32 -Pn cbr -Pi 54 -Pf 0 -Po 0 
s -t 3.382142857 -Hs 19 -Hd -2 -Ni 19 -Nx 843.44 -Ny 282.22 -Nz 0.00 -Ne 99.998275 -Nl AGT -Nw --- -Ma 0 -Md 0 -Ms 0 -Mt 0 -Is 19.0 -Id 18.0 -It cbr -Il 1000 -If 1 -Ii 55 -Iv 32 -Pn cbr -Pi 55 -Pf 0 -Po 0 
r -t 3.382142857 -Hs 19 -Hd -2 -Ni 19 -Nx 843.44 -Ny 282.22 -Nz 0.00 -Ne 99.998275 -Nl RTR -Nw --- -Ma 0 -Md 0 -Ms 0 -Mt 0 -Is 19.0 -Id 18.0 -It cbr -Il 1000 -If 1 -Ii 55 -Iv 32 -Pn cbr -Pi 55 -Pf 0 -Po 0 
s -t 3.400000000 -Hs 19 -Hd -2 -Ni 19 -Nx 843.12 -Ny 282.37 -Nz 0.00 -Ne 99.998275 -Nl AGT -Nw --- -Ma 0 -Md 0 -Ms 0 -Mt 0 -Is 19.0 -Id 18.0 -It cbr -Il 1000 -If 1 -Ii 56 -Iv 32 -Pn cbr -Pi 56 -Pf 0 -Po 0 
r -t 3.400000000 -Hs 19 -Hd -2 -Ni 19 -Nx 843.12 -Ny 282.37 -Nz 0.00 -Ne 99.998275 -Nl RTR -Nw --- -Ma 0 -Md 0 -Ms 0 -Mt 0 -Is 19.0 -Id 18.0 -It cbr -Il 1000 -If 1 -Ii 56 -Iv 32 -Pn cbr -Pi 56 -Pf 0 -Po 0 
s -t 3.417857143 -Hs 19 -Hd -2 -Ni 19 -Nx 842.80 -Ny 282.52 -Nz 0.00 -Ne 99.998275 -Nl AGT -Nw --- -Ma 0 -Md 0 -Ms 0 -Mt 0 -Is 19.0 -Id 18.0 -It cbr -Il 1000 -If 1 -Ii 57 -Iv 32 -Pn cbr -Pi 57 -Pf 0 -Po 0 
r -t 3.417857143 -Hs 19 -Hd -2 -Ni 19 -Nx 842.80 -Ny 282.52 -Nz 0.00 -Ne 99.998275 -Nl RTR -Nw --- -Ma 0 -Md 0 -Ms 0 -Mt 0 -Is 19.0 -Id 18.0 -It cbr -Il 1000 -If 1 -Ii 57 -Iv 32 -Pn cbr -Pi 57 -Pf 0 -Po 0 
s -t 3.435714286 -Hs 19 -Hd -2 -Ni 19 -Nx 842.48 -Ny 282.68 -Nz 0.00 -Ne 99.998275 -Nl AGT -Nw --- -Ma 0 -Md 0 -Ms 0 -Mt 0 -Is 19.0 -Id 18.0 -It cbr -Il 1000 -If 1 -Ii 58 -Iv 32 -Pn cbr -Pi 58 -Pf 0 -Po 0 
r -t 3.435714286 -Hs 19 -Hd -2 -Ni 19 -Nx 842.48 -Ny 282.68 -Nz 0.00 -Ne 99.998275 -Nl RTR -Nw --- -Ma 0 -Md 0 -Ms 0 -Mt 0 -Is 19.0 -Id 18.0 -It cbr -Il 1000 -If 1 -Ii 58 -Iv 32 -Pn cbr -Pi 58 -Pf 0 -Po 0 
s -t 3.453571429 -Hs 19 -Hd -2 -Ni 19 -Nx 842.15 -Ny 282.83 -Nz 0.00 -Ne 99.998275 -Nl AGT -Nw --- -Ma 0 -Md 0 -Ms 0 -Mt 0 -Is 19.0 -Id 18.0 -It cbr -Il 1000 -If 1 -Ii 59 -Iv 32 -Pn cbr -Pi 59 -Pf 0 -Po 0 
r -t 3.453571429 -Hs 19 -Hd -2 -Ni 19 -Nx 842.15 -Ny 282.83 -Nz 0.00 -Ne 99.998275 -Nl RTR -Nw --- -Ma 0 -Md 0 -Ms 0 -Mt 0 -Is 19.0 -Id 18.0 -It cbr -Il 1000 -If 1 -Ii 59 -Iv 32 -Pn cbr -Pi 59 -Pf 0 -Po 0 
s -t 3.471428571 -Hs 19 -Hd -2 -Ni 19 -Nx 841.83 -Ny 282.98 -Nz 0.00 -Ne 99.998275 -Nl AGT -Nw --- -Ma 0 -Md 0 -Ms 0 -Mt 0 -Is 19.0 -Id 18.0 -It cbr -Il 1000 -If 1 -Ii 60 -Iv 32 -Pn cbr -Pi 60 -Pf 0 -Po 0 
r -t 3.471428571 -Hs 19 -Hd -2 -Ni 19 -Nx 841.83 -Ny 282.98 -Nz 0.00 -Ne 99.998275 -Nl RTR -Nw --- -Ma 0 -Md 0 -Ms 0 -Mt 0 -Is 19.0 -Id 18.0 -It cbr -Il 1000 -If 1 -Ii 60 -Iv 32 -Pn cbr -Pi 60 -Pf 0 -Po 0 
s -t 3.489285714 -Hs 19 -Hd -2 -Ni 19 -Nx 841.51 -Ny 283.13 -Nz 0.00 -Ne 99.998275 -Nl AGT -Nw --- -Ma 0 -Md 0 -Ms 0 -Mt 0 -Is 19.0 -Id 18.0 -It cbr -Il 1000 -If 1 -Ii 61 -Iv 32 -Pn cbr -Pi 61 -Pf 0 -Po 0 
r -t 3.489285714 -Hs 19 -Hd -2 -Ni 19 -Nx 841.51 -Ny 283.13 -Nz 0.00 -Ne 99.998275 -Nl RTR -Nw --- -Ma 0 -Md 0 -Ms 0 -Mt 0 -Is 19.0 -Id 18.0 -It cbr -Il 1000 -If 1 -Ii 61 -Iv 32 -Pn cbr -Pi 61 -Pf 0 -Po 0 
s -t 3.507142857 -Hs 19 -Hd -2 -Ni 19 -Nx 841.18 -Ny 283.29 -Nz 0.00 -Ne 99.998275 -Nl AGT -Nw --- -Ma 0 -Md 0 -Ms 0 -Mt 0 -Is 19.0 -Id 18.0 -It cbr -Il 1000 -If 1 -Ii 62 -Iv 32 -Pn cbr -Pi 62 -Pf 0 -Po 0 
r -t 3.507142857 -Hs 19 -Hd -2 -Ni 19 -Nx 841.18 -Ny 283.29 -Nz 0.00 -Ne 99.998275 -Nl RTR -Nw --- -Ma 0 -Md 0 -Ms 0 -Mt 0 -Is 19.0 -Id 18.0 -It cbr -Il 1000 -If 1 -Ii 62 -Iv 32 -Pn cbr -Pi 62 -Pf 0 -Po 0 
s -t 3.525000000 -Hs 19 -Hd -2 -Ni 19 -Nx 840.86 -Ny 283.44 -Nz 0.00 -Ne 99.998275 -Nl AGT -Nw --- -Ma 0 -Md 0 -Ms 0 -Mt 0 -Is 19.0 -Id 18.0 -It cbr -Il 1000 -If 1 -Ii 63 -Iv 32 -Pn cbr -Pi 63 -Pf 0 -Po 0 
r -t 3.525000000 -Hs 19 -Hd -2 -Ni 19 -Nx 840.86 -Ny 283.44 -Nz 0.00 -Ne 99.998275 -Nl RTR -Nw --- -Ma 0 -Md 0 -Ms 0 -Mt 0 -Is 19.0 -Id 18.0 -It cbr -Il 1000 -If 1 -Ii 63 -Iv 32 -Pn cbr -Pi 63 -Pf 0 -Po 0 
s -t 3.542857143 -Hs 19 -Hd -2 -Ni 19 -Nx 840.54 -Ny 283.59 -Nz 0.00 -Ne 99.998275 -Nl AGT -Nw --- -Ma 0 -Md 0 -Ms 0 -Mt 0 -Is 19.0 -Id 18.0 -It cbr -Il 1000 -If 1 -Ii 64 -Iv 32 -Pn cbr -Pi 64 -Pf 0 -Po 0 
r -t 3.542857143 -Hs 19 -Hd -2 -Ni 19 -Nx 840.54 -Ny 283.59 -Nz 0.00 -Ne 99.998275 -Nl RTR -Nw --- -Ma 0 -Md 0 -Ms 0 -Mt 0 -Is 19.0 -Id 18.0 -It cbr -Il 1000 -If 1 -Ii 64 -Iv 32 -Pn cbr -Pi 64 -Pf 0 -Po 0 
d -t 3.542857143 -Hs 19 -Hd -2 -Ni 19 -Nx 840.54 -Ny 283.59 -Nz 0.00 -Ne 99.998275 -Nl RTR -Nw IFQ -Ma 0 -Md 0 -Ms 0 -Mt 0 -Is 19.0 -Id 18.0 -It cbr -Il 1020 -If 1 -Ii 0 -Iv 30 -Pn cbr -Pi 0 -Pf 0 -Po 0 
s -t 3.560714286 -Hs 19 -Hd -2 -Ni 19 -Nx 840.22 -Ny 283.74 -Nz 0.00 -Ne 99.998275 -Nl AGT -Nw --- -Ma 0 -Md 0 -Ms 0 -Mt 0 -Is 19.0 -Id 18.0 -It cbr -Il 1000 -If 1 -Ii 65 -Iv 32 -Pn cbr -Pi 65 -Pf 0 -Po 0 
r -t 3.560714286 -Hs 19 -Hd -2 -Ni 19 -Nx 840.22 -Ny 283.74 -Nz 0.00 -Ne 99.998275 -Nl RTR -Nw --- -Ma 0 -Md 0 -Ms 0 -Mt 0 -Is 19.0 -Id 18.0 -It cbr -Il 1000 -If 1 -Ii 65 -Iv 32 -Pn cbr -Pi 65 -Pf 0 -Po 0 
d -t 3.560714286 -Hs 19 -Hd -2 -Ni 19 -Nx 840.22 -Ny 283.74 -Nz 0.00 -Ne 99.998275 -Nl RTR -Nw IFQ -Ma 0 -Md 0 -Ms 0 -Mt 0 -Is 19.0 -Id 18.0 -It cbr -Il 1020 -If 1 -Ii 1 -Iv 30 -Pn cbr -Pi 1 -Pf 0 -Po 0 
s -t 3.578571429 -Hs 19 -Hd -2 -Ni 19 -Nx 839.89 -Ny 283.90 -Nz 0.00 -Ne 99.998275 -Nl AGT -Nw --- -Ma 0 -Md 0 -Ms 0 -Mt 0 -Is 19.0 -Id 18.0 -It cbr -Il 1000 -If 1 -Ii 66 -Iv 32 -Pn cbr -Pi 66 -Pf 0 -Po 0 
r -t 3.578571429 -Hs 19 -Hd -2 -Ni 19 -Nx 839.89 -Ny 283.90 -Nz 0.00 -Ne 99.998275 -Nl RTR -Nw --- -Ma 0 -Md 0 -Ms 0 -Mt 0 -Is 19.0 -Id 18.0 -It cbr -Il 1000 -If 1 -Ii 66 -Iv 32 -Pn cbr -Pi 66 -Pf 0 -Po 0 
d -t 3.578571429 -Hs 19 -Hd -2 -Ni 19 -Nx 839.89 -Ny 283.90 -Nz 0.00 -Ne 99.998275 -Nl RTR -Nw IFQ -Ma 0 -Md 0 -Ms 0 -Mt 0 -Is 19.0 -Id 18.0 -It cbr -Il 1020 -If 1 -Ii 2 -Iv 30 -Pn cbr -Pi 2 -Pf 0 -Po 0 
s -t 3.596428571 -Hs 19 -Hd -2 -Ni 19 -Nx 839.57 -Ny 284.05 -Nz 0.00 -Ne 99.998275 -Nl AGT -Nw --- -Ma 0 -Md 0 -Ms 0 -Mt 0 -Is 19.0 -Id 18.0 -It cbr -Il 1000 -If 1 -Ii 67 -Iv 32 -Pn cbr -Pi 67 -Pf 0 -Po 0 