n -t * -s 0  -x 36 -y 529 -Z 0 -z 70  -v circle -c green
n -t * -s 1  -x 143 -y 666 -Z 0 -z 70  -v circle -c green
n -t * -s 2  -x 201 -y 552 -Z 0 -z 70  -v circle -c green
n -t * -s 3  -x 147 -y 403 -Z 0 -z 70  -v circle -c green
n -t * -s 4  -x 230 -y 291 -Z 0 -z 70  -v circle -c green
n -t * -s 5  -x 295 -y 419 -Z 0 -z 70  -v circle -c green
n -t * -s 6  -x 363 -y 335 -Z 0 -z 70  -v circle -c green
n -t * -s 7  -x 334 -y 647 -Z 0 -z 70  -v circle -c green
n -t * -s 8  -x 304 -y 777 -Z 0 -z 70  -v circle -c green
n -t * -s 9  -x 412 -y 194 -Z 0 -z 70  -v circle -c green
V -t * -v 1.0a5 -a 0
W -t * -x 1800 -y 840
A -t * -n 1 -p 0 -o 0x7fffffff -c 30 -a 1
A -t * -h 1 -m 1073741823 -s 0
n -t 0 -s 0 -S DLABEL -l "Source" -L ""
n -t 0 -s 1 -S DLABEL -l "A" -L ""
n -t 0 -s 2 -S DLABEL -l "B" -L ""
n -t 0 -s 3 -S DLABEL -l "C" -L ""
n -t 0 -s 4 -S DLABEL -l "E" -L ""
n -t 0 -s 5 -S DLABEL -l "F" -L ""
n -t 0 -s 6 -S DLABEL -l "G" -L ""
n -t 0 -s 7 -S DLABEL -l "H" -L ""
n -t 0 -s 8 -S DLABEL -l "I" -L ""
n -t 0 -s 9 -S DLABEL -l "Destination" -L ""
v -t 0 set_rate_ext 0.012500000000000001 1
v -t 0 -e sim_annotation 0 1 MOBILE NODE MOVEMENTS
+ -t 0.000000000 -s 0 -d -1 -p AODV -e 44 -c 2 -a 0 -i 0 -k RTR 
- -t 0.000000000 -s 0 -d -1 -p AODV -e 44 -c 2 -a 0 -i 0 -k RTR
h -t 0.000000000 -s 0 -d -1 -p AODV -e 44 -c 2 -a 0 -i 0 -k RTR
+ -t 0.000000000 -s 1 -d -1 -p AODV -e 44 -c 2 -a 0 -i 0 -k RTR 
- -t 0.000000000 -s 1 -d -1 -p AODV -e 44 -c 2 -a 0 -i 0 -k RTR
h -t 0.000000000 -s 1 -d -1 -p AODV -e 44 -c 2 -a 0 -i 0 -k RTR
+ -t 0.000000000 -s 2 -d -1 -p AODV -e 44 -c 2 -a 0 -i 0 -k RTR 
- -t 0.000000000 -s 2 -d -1 -p AODV -e 44 -c 2 -a 0 -i 0 -k RTR
h -t 0.000000000 -s 2 -d -1 -p AODV -e 44 -c 2 -a 0 -i 0 -k RTR
+ -t 0.000000000 -s 3 -d -1 -p AODV -e 44 -c 2 -a 0 -i 0 -k RTR 
- -t 0.000000000 -s 3 -d -1 -p AODV -e 44 -c 2 -a 0 -i 0 -k RTR
h -t 0.000000000 -s 3 -d -1 -p AODV -e 44 -c 2 -a 0 -i 0 -k RTR
+ -t 0.000000000 -s 4 -d -1 -p AODV -e 44 -c 2 -a 0 -i 0 -k RTR 
- -t 0.000000000 -s 4 -d -1 -p AODV -e 44 -c 2 -a 0 -i 0 -k RTR
h -t 0.000000000 -s 4 -d -1 -p AODV -e 44 -c 2 -a 0 -i 0 -k RTR
+ -t 0.000000000 -s 5 -d -1 -p AODV -e 44 -c 2 -a 0 -i 0 -k RTR 
- -t 0.000000000 -s 5 -d -1 -p AODV -e 44 -c 2 -a 0 -i 0 -k RTR
h -t 0.000000000 -s 5 -d -1 -p AODV -e 44 -c 2 -a 0 -i 0 -k RTR
+ -t 0.000000000 -s 6 -d -1 -p AODV -e 44 -c 2 -a 0 -i 0 -k RTR 
- -t 0.000000000 -s 6 -d -1 -p AODV -e 44 -c 2 -a 0 -i 0 -k RTR
h -t 0.000000000 -s 6 -d -1 -p AODV -e 44 -c 2 -a 0 -i 0 -k RTR
+ -t 0.000000000 -s 7 -d -1 -p AODV -e 44 -c 2 -a 0 -i 0 -k RTR 
- -t 0.000000000 -s 7 -d -1 -p AODV -e 44 -c 2 -a 0 -i 0 -k RTR
h -t 0.000000000 -s 7 -d -1 -p AODV -e 44 -c 2 -a 0 -i 0 -k RTR
+ -t 0.000000000 -s 8 -d -1 -p AODV -e 44 -c 2 -a 0 -i 0 -k RTR 
- -t 0.000000000 -s 8 -d -1 -p AODV -e 44 -c 2 -a 0 -i 0 -k RTR
h -t 0.000000000 -s 8 -d -1 -p AODV -e 44 -c 2 -a 0 -i 0 -k RTR
+ -t 0.000000000 -s 9 -d -1 -p AODV -e 44 -c 2 -a 0 -i 0 -k RTR 
- -t 0.000000000 -s 9 -d -1 -p AODV -e 44 -c 2 -a 0 -i 0 -k RTR
h -t 0.000000000 -s 9 -d -1 -p AODV -e 44 -c 2 -a 0 -i 0 -k RTR
n -t 0.200000 -s 2 -x 201.000000 -y 552.000000 -U 6.038681 -V -19.066576 -T 17.884700
n -t 0.750000 -s 0 -x 36.000000 -y 529.000000 -U 17.709552 -V -9.293642 -T 19.368079
n -t 0.750000 -s 1 -x 143.000000 -y 666.000000 -U 15.004176 -V -13.224020 -T 27.525670
n -t 0.750000 -s 4 -x 230.000000 -y 291.000000 -U -7.413765 -V -18.575147 -T 12.274465
n -t 0.750000 -s 5 -x 295.000000 -y 419.000000 -U 1.272924 -V -19.959450 -T 19.639819
+ -t 0.753720658 -s 0 -d -1 -p AODV -e 44 -c 2 -a 0 -i 0 -k RTR 
- -t 0.753720658 -s 0 -d -1 -p AODV -e 44 -c 2 -a 0 -i 0 -k RTR
h -t 0.753720658 -s 0 -d -1 -p AODV -e 44 -c 2 -a 0 -i 0 -k RTR
+ -t 0.773076061 -s 1 -d -1 -p AODV -e 44 -c 2 -a 0 -i 0 -k RTR 
- -t 0.773076061 -s 1 -d -1 -p AODV -e 44 -c 2 -a 0 -i 0 -k RTR
h -t 0.773076061 -s 1 -d -1 -p AODV -e 44 -c 2 -a 0 -i 0 -k RTR
+ -t 0.843863020 -s 3 -d -1 -p AODV -e 44 -c 2 -a 0 -i 0 -k RTR 
- -t 0.843863020 -s 3 -d -1 -p AODV -e 44 -c 2 -a 0 -i 0 -k RTR
h -t 0.843863020 -s 3 -d -1 -p AODV -e 44 -c 2 -a 0 -i 0 -k RTR
+ -t 0.857936637 -s 9 -d -1 -p AODV -e 44 -c 2 -a 0 -i 0 -k RTR 
- -t 0.857936637 -s 9 -d -1 -p AODV -e 44 -c 2 -a 0 -i 0 -k RTR
h -t 0.857936637 -s 9 -d -1 -p AODV -e 44 -c 2 -a 0 -i 0 -k RTR
+ -t 0.862689129 -s 7 -d -1 -p AODV -e 44 -c 2 -a 0 -i 0 -k RTR 
- -t 0.862689129 -s 7 -d -1 -p AODV -e 44 -c 2 -a 0 -i 0 -k RTR
h -t 0.862689129 -s 7 -d -1 -p AODV -e 44 -c 2 -a 0 -i 0 -k RTR
+ -t 0.946963038 -s 8 -d -1 -p AODV -e 44 -c 2 -a 0 -i 0 -k RTR 
- -t 0.946963038 -s 8 -d -1 -p AODV -e 44 -c 2 -a 0 -i 0 -k RTR
h -t 0.946963038 -s 8 -d -1 -p AODV -e 44 -c 2 -a 0 -i 0 -k RTR
+ -t 1.007015031 -s 2 -d -1 -p AODV -e 44 -c 2 -a 0 -i 0 -k RTR 
- -t 1.007015031 -s 2 -d -1 -p AODV -e 44 -c 2 -a 0 -i 0 -k RTR
h -t 1.007015031 -s 2 -d -1 -p AODV -e 44 -c 2 -a 0 -i 0 -k RTR
+ -t 1.097491794 -s 5 -d -1 -p AODV -e 44 -c 2 -a 0 -i 0 -k RTR 
- -t 1.097491794 -s 5 -d -1 -p AODV -e 44 -c 2 -a 0 -i 0 -k RTR
h -t 1.097491794 -s 5 -d -1 -p AODV -e 44 -c 2 -a 0 -i 0 -k RTR
+ -t 1.133697641 -s 4 -d -1 -p AODV -e 44 -c 2 -a 0 -i 0 -k RTR 
- -t 1.133697641 -s 4 -d -1 -p AODV -e 44 -c 2 -a 0 -i 0 -k RTR
h -t 1.133697641 -s 4 -d -1 -p AODV -e 44 -c 2 -a 0 -i 0 -k RTR
+ -t 1.176445712 -s 6 -d -1 -p AODV -e 44 -c 2 -a 0 -i 0 -k RTR 
- -t 1.176445712 -s 6 -d -1 -p AODV -e 44 -c 2 -a 0 -i 0 -k RTR
h -t 1.176445712 -s 6 -d -1 -p AODV -e 44 -c 2 -a 0 -i 0 -k RTR
n -t 1.250000 -s 3 -x 147.000000 -y 403.000000 -U 8.315195 -V -18.189490 -T 3.848376
n -t 1.250000 -s 7 -x 334.000000 -y 647.000000 -U -7.022469 -V -18.726584 -T 8.544004
n -t 1.250000 -s 8 -x 304.000000 -y 777.000000 -U 10.650318 -V -16.928400 -T 17.839843
n -t 1.250000 -s 9 -x 412.000000 -y 194.000000 -U 16.355356 -V 18.907732 -T 29.776178
n -t 1.500000 -s 6 -x 363.000000 -y 335.000000 -U 11.166487 -V -16.592455 -T 12.716623
+ -t 1.723082438 -s 7 -d -1 -p AODV -e 44 -c 2 -a 0 -i 0 -k RTR 
- -t 1.723082438 -s 7 -d -1 -p AODV -e 44 -c 2 -a 0 -i 0 -k RTR
h -t 1.723082438 -s 7 -d -1 -p AODV -e 44 -c 2 -a 0 -i 0 -k RTR
+ -t 1.772456440 -s 0 -d -1 -p AODV -e 44 -c 2 -a 0 -i 0 -k RTR 
- -t 1.772456440 -s 0 -d -1 -p AODV -e 44 -c 2 -a 0 -i 0 -k RTR
h -t 1.772456440 -s 0 -d -1 -p AODV -e 44 -c 2 -a 0 -i 0 -k RTR
+ -t 1.816151490 -s 3 -d -1 -p AODV -e 44 -c 2 -a 0 -i 0 -k RTR 
- -t 1.816151490 -s 3 -d -1 -p AODV -e 44 -c 2 -a 0 -i 0 -k RTR
h -t 1.816151490 -s 3 -d -1 -p AODV -e 44 -c 2 -a 0 -i 0 -k RTR
+ -t 1.843735463 -s 2 -d -1 -p AODV -e 44 -c 2 -a 0 -i 0 -k RTR 
- -t 1.843735463 -s 2 -d -1 -p AODV -e 44 -c 2 -a 0 -i 0 -k RTR
h -t 1.843735463 -s 2 -d -1 -p AODV -e 44 -c 2 -a 0 -i 0 -k RTR
+ -t 1.900759326 -s 9 -d -1 -p AODV -e 44 -c 2 -a 0 -i 0 -k RTR 
- -t 1.900759326 -s 9 -d -1 -p AODV -e 44 -c 2 -a 0 -i 0 -k RTR
h -t 1.900759326 -s 9 -d -1 -p AODV -e 44 -c 2 -a 0 -i 0 -k RTR
+ -t 1.917326360 -s 1 -d -1 -p AODV -e 44 -c 2 -a 0 -i 0 -k RTR 
- -t 1.917326360 -s 1 -d -1 -p AODV -e 44 -c 2 -a 0 -i 0 -k RTR
h -t 1.917326360 -s 1 -d -1 -p AODV -e 44 -c 2 -a 0 -i 0 -k RTR
+ -t 1.947123378 -s 5 -d -1 -p AODV -e 44 -c 2 -a 0 -i 0 -k RTR 
- -t 1.947123378 -s 5 -d -1 -p AODV -e 44 -c 2 -a 0 -i 0 -k RTR
h -t 1.947123378 -s 5 -d -1 -p AODV -e 44 -c 2 -a 0 -i 0 -k RTR
r -t 1.948379706 -s 6 -d -1 -p AODV -e 44 -c 2 -a 0 -i 0 -k RTR
+ -t 2.066418317 -s 4 -d -1 -p AODV -e 44 -c 2 -a 0 -i 0 -k RTR 
- -t 2.066418317 -s 4 -d -1 -p AODV -e 44 -c 2 -a 0 -i 0 -k RTR
h -t 2.066418317 -s 4 -d -1 -p AODV -e 44 -c 2 -a 0 -i 0 -k RTR
+ -t 2.070093812 -s 8 -d -1 -p AODV -e 44 -c 2 -a 0 -i 0 -k RTR 
- -t 2.070093812 -s 8 -d -1 -p AODV -e 44 -c 2 -a 0 -i 0 -k RTR
h -t 2.070093812 -s 8 -d -1 -p AODV -e 44 -c 2 -a 0 -i 0 -k RTR
+ -t 2.156914188 -s 6 -d -1 -p AODV -e 44 -c 2 -a 0 -i 0 -k RTR 
- -t 2.156914188 -s 6 -d -1 -p AODV -e 44 -c 2 -a 0 -i 0 -k RTR
h -t 2.156914188 -s 6 -d -1 -p AODV -e 44 -c 2 -a 0 -i 0 -k RTR
r -t 2.157910519 -s 5 -d -1 -p AODV -e 44 -c 2 -a 0 -i 0 -k RTR
+ -t 2.400000000 -s 8 -d -1 -p cbr -e 1000 -c 2 -a 0 -i 0 -k AGT 
- -t 2.400000000 -s 8 -d -1 -p cbr -e 1000 -c 2 -a 0 -i 0 -k AGT
h -t 2.400000000 -s 8 -d -1 -p cbr -e 1000 -c 2 -a 0 -i 0 -k AGT
+ -t 2.400000000 -s 8 -d -1 -p AODV -e 48 -c 2 -a 0 -i 0 -k RTR 
- -t 2.400000000 -s 8 -d -1 -p AODV -e 48 -c 2 -a 0 -i 0 -k RTR
h -t 2.400000000 -s 8 -d -1 -p AODV -e 48 -c 2 -a 0 -i 0 -k RTR
+ -t 2.417857143 -s 8 -d -1 -p cbr -e 1000 -c 2 -a 0 -i 1 -k AGT 
- -t 2.417857143 -s 8 -d -1 -p cbr -e 1000 -c 2 -a 0 -i 1 -k AGT
h -t 2.417857143 -s 8 -d -1 -p cbr -e 1000 -c 2 -a 0 -i 1 -k AGT
+ -t 2.435714286 -s 8 -d -1 -p cbr -e 1000 -c 2 -a 0 -i 2 -k AGT 
- -t 2.435714286 -s 8 -d -1 -p cbr -e 1000 -c 2 -a 0 -i 2 -k AGT
h -t 2.435714286 -s 8 -d -1 -p cbr -e 1000 -c 2 -a 0 -i 2 -k AGT
+ -t 2.453571429 -s 8 -d -1 -p cbr -e 1000 -c 2 -a 0 -i 3 -k AGT 
- -t 2.453571429 -s 8 -d -1 -p cbr -e 1000 -c 2 -a 0 -i 3 -k AGT
h -t 2.453571429 -s 8 -d -1 -p cbr -e 1000 -c 2 -a 0 -i 3 -k AGT
+ -t 2.471428571 -s 8 -d -1 -p cbr -e 1000 -c 2 -a 0 -i 4 -k AGT 
- -t 2.471428571 -s 8 -d -1 -p cbr -e 1000 -c 2 -a 0 -i 4 -k AGT
h -t 2.471428571 -s 8 -d -1 -p cbr -e 1000 -c 2 -a 0 -i 4 -k AGT
+ -t 2.489285714 -s 8 -d -1 -p cbr -e 1000 -c 2 -a 0 -i 5 -k AGT 
- -t 2.489285714 -s 8 -d -1 -p cbr -e 1000 -c 2 -a 0 -i 5 -k AGT
h -t 2.489285714 -s 8 -d -1 -p cbr -e 1000 -c 2 -a 0 -i 5 -k AGT
+ -t 2.507142857 -s 8 -d -1 -p cbr -e 1000 -c 2 -a 0 -i 6 -k AGT 
- -t 2.507142857 -s 8 -d -1 -p cbr -e 1000 -c 2 -a 0 -i 6 -k AGT
h -t 2.507142857 -s 8 -d -1 -p cbr -e 1000 -c 2 -a 0 -i 6 -k AGT
+ -t 2.525000000 -s 8 -d -1 -p cbr -e 1000 -c 2 -a 0 -i 7 -k AGT 
- -t 2.525000000 -s 8 -d -1 -p cbr -e 1000 -c 2 -a 0 -i 7 -k AGT
h -t 2.525000000 -s 8 -d -1 -p cbr -e 1000 -c 2 -a 0 -i 7 -k AGT
+ -t 2.542857143 -s 8 -d -1 -p cbr -e 1000 -c 2 -a 0 -i 8 -k AGT 
- -t 2.542857143 -s 8 -d -1 -p cbr -e 1000 -c 2 -a 0 -i 8 -k AGT
h -t 2.542857143 -s 8 -d -1 -p cbr -e 1000 -c 2 -a 0 -i 8 -k AGT
+ -t 2.560714286 -s 8 -d -1 -p cbr -e 1000 -c 2 -a 0 -i 9 -k AGT 
- -t 2.560714286 -s 8 -d -1 -p cbr -e 1000 -c 2 -a 0 -i 9 -k AGT
h -t 2.560714286 -s 8 -d -1 -p cbr -e 1000 -c 2 -a 0 -i 9 -k AGT
+ -t 2.578571429 -s 8 -d -1 -p cbr -e 1000 -c 2 -a 0 -i 10 -k AGT 
- -t 2.578571429 -s 8 -d -1 -p cbr -e 1000 -c 2 -a 0 -i 10 -k AGT
h -t 2.578571429 -s 8 -d -1 -p cbr -e 1000 -c 2 -a 0 -i 10 -k AGT
+ -t 2.596428571 -s 8 -d -1 -p cbr -e 1000 -c 2 -a 0 -i 11 -k AGT 
- -t 2.596428571 -s 8 -d -1 -p cbr -e 1000 -c 2 -a 0 -i 11 -k AGT
h -t 2.596428571 -s 8 -d -1 -p cbr -e 1000 -c 2 -a 0 -i 11 -k AGT
+ -t 2.614285714 -s 8 -d -1 -p cbr -e 1000 -c 2 -a 0 -i 12 -k AGT 
- -t 2.614285714 -s 8 -d -1 -p cbr -e 1000 -c 2 -a 0 -i 12 -k AGT
h -t 2.614285714 -s 8 -d -1 -p cbr -e 1000 -c 2 -a 0 -i 12 -k AGT
+ -t 2.632142857 -s 8 -d -1 -p cbr -e 1000 -c 2 -a 0 -i 13 -k AGT 
- -t 2.632142857 -s 8 -d -1 -p cbr -e 1000 -c 2 -a 0 -i 13 -k AGT
h -t 2.632142857 -s 8 -d -1 -p cbr -e 1000 -c 2 -a 0 -i 13 -k AGT
+ -t 2.650000000 -s 8 -d -1 -p cbr -e 1000 -c 2 -a 0 -i 14 -k AGT 
- -t 2.650000000 -s 8 -d -1 -p cbr -e 1000 -c 2 -a 0 -i 14 -k AGT
h -t 2.650000000 -s 8 -d -1 -p cbr -e 1000 -c 2 -a 0 -i 14 -k AGT
+ -t 2.667857143 -s 8 -d -1 -p cbr -e 1000 -c 2 -a 0 -i 15 -k AGT 
- -t 2.667857143 -s 8 -d -1 -p cbr -e 1000 -c 2 -a 0 -i 15 -k AGT
h -t 2.667857143 -s 8 -d -1 -p cbr -e 1000 -c 2 -a 0 -i 15 -k AGT
+ -t 2.685714286 -s 8 -d -1 -p cbr -e 1000 -c 2 -a 0 -i 16 -k AGT 
- -t 2.685714286 -s 8 -d -1 -p cbr -e 1000 -c 2 -a 0 -i 16 -k AGT
h -t 2.685714286 -s 8 -d -1 -p cbr -e 1000 -c 2 -a 0 -i 16 -k AGT
+ -t 2.698804225 -s 3 -d -1 -p AODV -e 44 -c 2 -a 0 -i 0 -k RTR 
- -t 2.698804225 -s 3 -d -1 -p AODV -e 44 -c 2 -a 0 -i 0 -k RTR
h -t 2.698804225 -s 3 -d -1 -p AODV -e 44 -c 2 -a 0 -i 0 -k RTR
+ -t 2.703571429 -s 8 -d -1 -p cbr -e 1000 -c 2 -a 0 -i 17 -k AGT 
- -t 2.703571429 -s 8 -d -1 -p cbr -e 1000 -c 2 -a 0 -i 17 -k AGT
h -t 2.703571429 -s 8 -d -1 -p cbr -e 1000 -c 2 -a 0 -i 17 -k AGT
+ -t 2.720744308 -s 9 -d -1 -p AODV -e 44 -c 2 -a 0 -i 0 -k RTR 
- -t 2.720744308 -s 9 -d -1 -p AODV -e 44 -c 2 -a 0 -i 0 -k RTR
h -t 2.720744308 -s 9 -d -1 -p AODV -e 44 -c 2 -a 0 -i 0 -k RTR
+ -t 2.721428571 -s 8 -d -1 -p cbr -e 1000 -c 2 -a 0 -i 18 -k AGT 
- -t 2.721428571 -s 8 -d -1 -p cbr -e 1000 -c 2 -a 0 -i 18 -k AGT
h -t 2.721428571 -s 8 -d -1 -p cbr -e 1000 -c 2 -a 0 -i 18 -k AGT
+ -t 2.726781345 -s 2 -d -1 -p AODV -e 44 -c 2 -a 0 -i 0 -k RTR 
- -t 2.726781345 -s 2 -d -1 -p AODV -e 44 -c 2 -a 0 -i 0 -k RTR
h -t 2.726781345 -s 2 -d -1 -p AODV -e 44 -c 2 -a 0 -i 0 -k RTR
+ -t 2.727331249 -s 7 -d -1 -p AODV -e 44 -c 2 -a 0 -i 0 -k RTR 
- -t 2.727331249 -s 7 -d -1 -p AODV -e 44 -c 2 -a 0 -i 0 -k RTR
h -t 2.727331249 -s 7 -d -1 -p AODV -e 44 -c 2 -a 0 -i 0 -k RTR
+ -t 2.739285714 -s 8 -d -1 -p cbr -e 1000 -c 2 -a 0 -i 19 -k AGT 
- -t 2.739285714 -s 8 -d -1 -p cbr -e 1000 -c 2 -a 0 -i 19 -k AGT
h -t 2.739285714 -s 8 -d -1 -p cbr -e 1000 -c 2 -a 0 -i 19 -k AGT
+ -t 2.756255391 -s 0 -d -1 -p AODV -e 44 -c 2 -a 0 -i 0 -k RTR 
- -t 2.756255391 -s 0 -d -1 -p AODV -e 44 -c 2 -a 0 -i 0 -k RTR
h -t 2.756255391 -s 0 -d -1 -p AODV -e 44 -c 2 -a 0 -i 0 -k RTR
+ -t 2.757142857 -s 8 -d -1 -p cbr -e 1000 -c 2 -a 0 -i 20 -k AGT 
- -t 2.757142857 -s 8 -d -1 -p cbr -e 1000 -c 2 -a 0 -i 20 -k AGT
h -t 2.757142857 -s 8 -d -1 -p cbr -e 1000 -c 2 -a 0 -i 20 -k AGT
+ -t 2.775000000 -s 8 -d -1 -p cbr -e 1000 -c 2 -a 0 -i 21 -k AGT 
- -t 2.775000000 -s 8 -d -1 -p cbr -e 1000 -c 2 -a 0 -i 21 -k AGT
h -t 2.775000000 -s 8 -d -1 -p cbr -e 1000 -c 2 -a 0 -i 21 -k AGT
+ -t 2.788894162 -s 5 -d -1 -p AODV -e 44 -c 2 -a 0 -i 0 -k RTR 
- -t 2.788894162 -s 5 -d -1 -p AODV -e 44 -c 2 -a 0 -i 0 -k RTR
h -t 2.788894162 -s 5 -d -1 -p AODV -e 44 -c 2 -a 0 -i 0 -k RTR
+ -t 2.792857143 -s 8 -d -1 -p cbr -e 1000 -c 2 -a 0 -i 22 -k AGT 
- -t 2.792857143 -s 8 -d -1 -p cbr -e 1000 -c 2 -a 0 -i 22 -k AGT
h -t 2.792857143 -s 8 -d -1 -p cbr -e 1000 -c 2 -a 0 -i 22 -k AGT
+ -t 2.810714286 -s 8 -d -1 -p cbr -e 1000 -c 2 -a 0 -i 23 -k AGT 
- -t 2.810714286 -s 8 -d -1 -p cbr -e 1000 -c 2 -a 0 -i 23 -k AGT
h -t 2.810714286 -s 8 -d -1 -p cbr -e 1000 -c 2 -a 0 -i 23 -k AGT
+ -t 2.828571429 -s 8 -d -1 -p cbr -e 1000 -c 2 -a 0 -i 24 -k AGT 
- -t 2.828571429 -s 8 -d -1 -p cbr -e 1000 -c 2 -a 0 -i 24 -k AGT
h -t 2.828571429 -s 8 -d -1 -p cbr -e 1000 -c 2 -a 0 -i 24 -k AGT
+ -t 2.846428571 -s 8 -d -1 -p cbr -e 1000 -c 2 -a 0 -i 25 -k AGT 
- -t 2.846428571 -s 8 -d -1 -p cbr -e 1000 -c 2 -a 0 -i 25 -k AGT
h -t 2.846428571 -s 8 -d -1 -p cbr -e 1000 -c 2 -a 0 -i 25 -k AGT
+ -t 2.864285714 -s 8 -d -1 -p cbr -e 1000 -c 2 -a 0 -i 26 -k AGT 
- -t 2.864285714 -s 8 -d -1 -p cbr -e 1000 -c 2 -a 0 -i 26 -k AGT
h -t 2.864285714 -s 8 -d -1 -p cbr -e 1000 -c 2 -a 0 -i 26 -k AGT
+ -t 2.882142857 -s 8 -d -1 -p cbr -e 1000 -c 2 -a 0 -i 27 -k AGT 
- -t 2.882142857 -s 8 -d -1 -p cbr -e 1000 -c 2 -a 0 -i 27 -k AGT
h -t 2.882142857 -s 8 -d -1 -p cbr -e 1000 -c 2 -a 0 -i 27 -k AGT
+ -t 2.900000000 -s 8 -d -1 -p cbr -e 1000 -c 2 -a 0 -i 28 -k AGT 
- -t 2.900000000 -s 8 -d -1 -p cbr -e 1000 -c 2 -a 0 -i 28 -k AGT
h -t 2.900000000 -s 8 -d -1 -p cbr -e 1000 -c 2 -a 0 -i 28 -k AGT
+ -t 2.917857143 -s 8 -d -1 -p cbr -e 1000 -c 2 -a 0 -i 29 -k AGT 
- -t 2.917857143 -s 8 -d -1 -p cbr -e 1000 -c 2 -a 0 -i 29 -k AGT
h -t 2.917857143 -s 8 -d -1 -p cbr -e 1000 -c 2 -a 0 -i 29 -k AGT
+ -t 2.935714286 -s 8 -d -1 -p cbr -e 1000 -c 2 -a 0 -i 30 -k AGT 
- -t 2.935714286 -s 8 -d -1 -p cbr -e 1000 -c 2 -a 0 -i 30 -k AGT
h -t 2.935714286 -s 8 -d -1 -p cbr -e 1000 -c 2 -a 0 -i 30 -k AGT
+ -t 2.953571429 -s 8 -d -1 -p cbr -e 1000 -c 2 -a 0 -i 31 -k AGT 
- -t 2.953571429 -s 8 -d -1 -p cbr -e 1000 -c 2 -a 0 -i 31 -k AGT
h -t 2.953571429 -s 8 -d -1 -p cbr -e 1000 -c 2 -a 0 -i 31 -k AGT
+ -t 2.954103816 -s 6 -d -1 -p AODV -e 44 -c 2 -a 0 -i 0 -k RTR 
- -t 2.954103816 -s 6 -d -1 -p AODV -e 44 -c 2 -a 0 -i 0 -k RTR
h -t 2.954103816 -s 6 -d -1 -p AODV -e 44 -c 2 -a 0 -i 0 -k RTR
+ -t 2.971428571 -s 8 -d -1 -p cbr -e 1000 -c 2 -a 0 -i 32 -k AGT 
- -t 2.971428571 -s 8 -d -1 -p cbr -e 1000 -c 2 -a 0 -i 32 -k AGT
h -t 2.971428571 -s 8 -d -1 -p cbr -e 1000 -c 2 -a 0 -i 32 -k AGT
+ -t 2.987038688 -s 1 -d -1 -p AODV -e 44 -c 2 -a 0 -i 0 -k RTR 
- -t 2.987038688 -s 1 -d -1 -p AODV -e 44 -c 2 -a 0 -i 0 -k RTR
h -t 2.987038688 -s 1 -d -1 -p AODV -e 44 -c 2 -a 0 -i 0 -k RTR
+ -t 2.989285714 -s 8 -d -1 -p cbr -e 1000 -c 2 -a 0 -i 33 -k AGT 
- -t 2.989285714 -s 8 -d -1 -p cbr -e 1000 -c 2 -a 0 -i 33 -k AGT
h -t 2.989285714 -s 8 -d -1 -p cbr -e 1000 -c 2 -a 0 -i 33 -k AGT
+ -t 3.007142857 -s 8 -d -1 -p cbr -e 1000 -c 2 -a 0 -i 34 -k AGT 
- -t 3.007142857 -s 8 -d -1 -p cbr -e 1000 -c 2 -a 0 -i 34 -k AGT
h -t 3.007142857 -s 8 -d -1 -p cbr -e 1000 -c 2 -a 0 -i 34 -k AGT
+ -t 3.025000000 -s 8 -d -1 -p cbr -e 1000 -c 2 -a 0 -i 35 -k AGT 
- -t 3.025000000 -s 8 -d -1 -p cbr -e 1000 -c 2 -a 0 -i 35 -k AGT
h -t 3.025000000 -s 8 -d -1 -p cbr -e 1000 -c 2 -a 0 -i 35 -k AGT
+ -t 3.042857143 -s 8 -d -1 -p cbr -e 1000 -c 2 -a 0 -i 36 -k AGT 
- -t 3.042857143 -s 8 -d -1 -p cbr -e 1000 -c 2 -a 0 -i 36 -k AGT
h -t 3.042857143 -s 8 -d -1 -p cbr -e 1000 -c 2 -a 0 -i 36 -k AGT
+ -t 3.060714286 -s 8 -d -1 -p cbr -e 1000 -c 2 -a 0 -i 37 -k AGT 
- -t 3.060714286 -s 8 -d -1 -p cbr -e 1000 -c 2 -a 0 -i 37 -k AGT
h -t 3.060714286 -s 8 -d -1 -p cbr -e 1000 -c 2 -a 0 -i 37 -k AGT
+ -t 3.078571429 -s 8 -d -1 -p cbr -e 1000 -c 2 -a 0 -i 38 -k AGT 
- -t 3.078571429 -s 8 -d -1 -p cbr -e 1000 -c 2 -a 0 -i 38 -k AGT
h -t 3.078571429 -s 8 -d -1 -p cbr -e 1000 -c 2 -a 0 -i 38 -k AGT
+ -t 3.096428571 -s 8 -d -1 -p cbr -e 1000 -c 2 -a 0 -i 39 -k AGT 
- -t 3.096428571 -s 8 -d -1 -p cbr -e 1000 -c 2 -a 0 -i 39 -k AGT
h -t 3.096428571 -s 8 -d -1 -p cbr -e 1000 -c 2 -a 0 -i 39 -k AGT
+ -t 3.114285714 -s 8 -d -1 -p cbr -e 1000 -c 2 -a 0 -i 40 -k AGT 
- -t 3.114285714 -s 8 -d -1 -p cbr -e 1000 -c 2 -a 0 -i 40 -k AGT
h -t 3.114285714 -s 8 -d -1 -p cbr -e 1000 -c 2 -a 0 -i 40 -k AGT
+ -t 3.132142857 -s 8 -d -1 -p cbr -e 1000 -c 2 -a 0 -i 41 -k AGT 
- -t 3.132142857 -s 8 -d -1 -p cbr -e 1000 -c 2 -a 0 -i 41 -k AGT
h -t 3.132142857 -s 8 -d -1 -p cbr -e 1000 -c 2 -a 0 -i 41 -k AGT
+ -t 3.150000000 -s 8 -d -1 -p cbr -e 1000 -c 2 -a 0 -i 42 -k AGT 
- -t 3.150000000 -s 8 -d -1 -p cbr -e 1000 -c 2 -a 0 -i 42 -k AGT
h -t 3.150000000 -s 8 -d -1 -p cbr -e 1000 -c 2 -a 0 -i 42 -k AGT
+ -t 3.167857143 -s 8 -d -1 -p cbr -e 1000 -c 2 -a 0 -i 43 -k AGT 
- -t 3.167857143 -s 8 -d -1 -p cbr -e 1000 -c 2 -a 0 -i 43 -k AGT
h -t 3.167857143 -s 8 -d -1 -p cbr -e 1000 -c 2 -a 0 -i 43 -k AGT
+ -t 3.185714286 -s 8 -d -1 -p cbr -e 1000 -c 2 -a 0 -i 44 -k AGT 
- -t 3.185714286 -s 8 -d -1 -p cbr -e 1000 -c 2 -a 0 -i 44 -k AGT
h -t 3.185714286 -s 8 -d -1 -p cbr -e 1000 -c 2 -a 0 -i 44 -k AGT
+ -t 3.200098992 -s 8 -d -1 -p AODV -e 44 -c 2 -a 0 -i 0 -k RTR 
- -t 3.200098992 -s 8 -d -1 -p AODV -e 44 -c 2 -a 0 -i 0 -k RTR
h -t 3.200098992 -s 8 -d -1 -p AODV -e 44 -c 2 -a 0 -i 0 -k RTR
+ -t 3.203571429 -s 8 -d -1 -p cbr -e 1000 -c 2 -a 0 -i 45 -k AGT 
- -t 3.203571429 -s 8 -d -1 -p cbr -e 1000 -c 2 -a 0 -i 45 -k AGT
h -t 3.203571429 -s 8 -d -1 -p cbr -e 1000 -c 2 -a 0 -i 45 -k AGT
+ -t 3.221428571 -s 8 -d -1 -p cbr -e 1000 -c 2 -a 0 -i 46 -k AGT 
- -t 3.221428571 -s 8 -d -1 -p cbr -e 1000 -c 2 -a 0 -i 46 -k AGT
h -t 3.221428571 -s 8 -d -1 -p cbr -e 1000 -c 2 -a 0 -i 46 -k AGT
+ -t 3.237698629 -s 4 -d -1 -p AODV -e 44 -c 2 -a 0 -i 0 -k RTR 
- -t 3.237698629 -s 4 -d -1 -p AODV -e 44 -c 2 -a 0 -i 0 -k RTR
h -t 3.237698629 -s 4 -d -1 -p AODV -e 44 -c 2 -a 0 -i 0 -k RTR
+ -t 3.239285714 -s 8 -d -1 -p cbr -e 1000 -c 2 -a 0 -i 47 -k AGT 
- -t 3.239285714 -s 8 -d -1 -p cbr -e 1000 -c 2 -a 0 -i 47 -k AGT
h -t 3.239285714 -s 8 -d -1 -p cbr -e 1000 -c 2 -a 0 -i 47 -k AGT
+ -t 3.257142857 -s 8 -d -1 -p cbr -e 1000 -c 2 -a 0 -i 48 -k AGT 
- -t 3.257142857 -s 8 -d -1 -p cbr -e 1000 -c 2 -a 0 -i 48 -k AGT
h -t 3.257142857 -s 8 -d -1 -p cbr -e 1000 -c 2 -a 0 -i 48 -k AGT
+ -t 3.275000000 -s 8 -d -1 -p cbr -e 1000 -c 2 -a 0 -i 49 -k AGT 
- -t 3.275000000 -s 8 -d -1 -p cbr -e 1000 -c 2 -a 0 -i 49 -k AGT
h -t 3.275000000 -s 8 -d -1 -p cbr -e 1000 -c 2 -a 0 -i 49 -k AGT
+ -t 3.292857143 -s 8 -d -1 -p cbr -e 1000 -c 2 -a 0 -i 50 -k AGT 
- -t 3.292857143 -s 8 -d -1 -p cbr -e 1000 -c 2 -a 0 -i 50 -k AGT
h -t 3.292857143 -s 8 -d -1 -p cbr -e 1000 -c 2 -a 0 -i 50 -k AGT
+ -t 3.310714286 -s 8 -d -1 -p cbr -e 1000 -c 2 -a 0 -i 51 -k AGT 
- -t 3.310714286 -s 8 -d -1 -p cbr -e 1000 -c 2 -a 0 -i 51 -k AGT
h -t 3.310714286 -s 8 -d -1 -p cbr -e 1000 -c 2 -a 0 -i 51 -k AGT
+ -t 3.328571429 -s 8 -d -1 -p cbr -e 1000 -c 2 -a 0 -i 52 -k AGT 
- -t 3.328571429 -s 8 -d -1 -p cbr -e 1000 -c 2 -a 0 -i 52 -k AGT
h -t 3.328571429 -s 8 -d -1 -p cbr -e 1000 -c 2 -a 0 -i 52 -k AGT
+ -t 3.346428571 -s 8 -d -1 -p cbr -e 1000 -c 2 -a 0 -i 53 -k AGT 
- -t 3.346428571 -s 8 -d -1 -p cbr -e 1000 -c 2 -a 0 -i 53 -k AGT
h -t 3.346428571 -s 8 -d -1 -p cbr -e 1000 -c 2 -a 0 -i 53 -k AGT
+ -t 3.364285714 -s 8 -d -1 -p cbr -e 1000 -c 2 -a 0 -i 54 -k AGT 
- -t 3.364285714 -s 8 -d -1 -p cbr -e 1000 -c 2 -a 0 -i 54 -k AGT
h -t 3.364285714 -s 8 -d -1 -p cbr -e 1000 -c 2 -a 0 -i 54 -k AGT
+ -t 3.382142857 -s 8 -d -1 -p cbr -e 1000 -c 2 -a 0 -i 55 -k AGT 
- -t 3.382142857 -s 8 -d -1 -p cbr -e 1000 -c 2 -a 0 -i 55 -k AGT
h -t 3.382142857 -s 8 -d -1 -p cbr -e 1000 -c 2 -a 0 -i 55 -k AGT
+ -t 3.400000000 -s 8 -d -1 -p cbr -e 1000 -c 2 -a 0 -i 56 -k AGT 
- -t 3.400000000 -s 8 -d -1 -p cbr -e 1000 -c 2 -a 0 -i 56 -k AGT
h -t 3.400000000 -s 8 -d -1 -p cbr -e 1000 -c 2 -a 0 -i 56 -k AGT
+ -t 3.417857143 -s 8 -d -1 -p cbr -e 1000 -c 2 -a 0 -i 57 -k AGT 
- -t 3.417857143 -s 8 -d -1 -p cbr -e 1000 -c 2 -a 0 -i 57 -k AGT
h -t 3.417857143 -s 8 -d -1 -p cbr -e 1000 -c 2 -a 0 -i 57 -k AGT
+ -t 3.435714286 -s 8 -d -1 -p cbr -e 1000 -c 2 -a 0 -i 58 -k AGT 
- -t 3.435714286 -s 8 -d -1 -p cbr -e 1000 -c 2 -a 0 -i 58 -k AGT
h -t 3.435714286 -s 8 -d -1 -p cbr -e 1000 -c 2 -a 0 -i 58 -k AGT
+ -t 3.453571429 -s 8 -d -1 -p cbr -e 1000 -c 2 -a 0 -i 59 -k AGT 
- -t 3.453571429 -s 8 -d -1 -p cbr -e 1000 -c 2 -a 0 -i 59 -k AGT
h -t 3.453571429 -s 8 -d -1 -p cbr -e 1000 -c 2 -a 0 -i 59 -k AGT
+ -t 3.471428571 -s 8 -d -1 -p cbr -e 1000 -c 2 -a 0 -i 60 -k AGT 
- -t 3.471428571 -s 8 -d -1 -p cbr -e 1000 -c 2 -a 0 -i 60 -k AGT
h -t 3.471428571 -s 8 -d -1 -p cbr -e 1000 -c 2 -a 0 -i 60 -k AGT
+ -t 3.489285714 -s 8 -d -1 -p cbr -e 1000 -c 2 -a 0 -i 61 -k AGT 
- -t 3.489285714 -s 8 -d -1 -p cbr -e 1000 -c 2 -a 0 -i 61 -k AGT
h -t 3.489285714 -s 8 -d -1 -p cbr -e 1000 -c 2 -a 0 -i 61 -k AGT
+ -t 3.495764947 -s 3 -d -1 -p AODV -e 44 -c 2 -a 0 -i 0 -k RTR 
- -t 3.495764947 -s 3 -d -1 -p AODV -e 44 -c 2 -a 0 -i 0 -k RTR
h -t 3.495764947 -s 3 -d -1 -p AODV -e 44 -c 2 -a 0 -i 0 -k RTR
+ -t 3.507142857 -s 8 -d -1 -p cbr -e 1000 -c 2 -a 0 -i 62 -k AGT 
- -t 3.507142857 -s 8 -d -1 -p cbr -e 1000 -c 2 -a 0 -i 62 -k AGT
h -t 3.507142857 -s 8 -d -1 -p cbr -e 1000 -c 2 -a 0 -i 62 -k AGT
+ -t 3.525000000 -s 8 -d -1 -p cbr -e 1000 -c 2 -a 0 -i 63 -k AGT 
- -t 3.525000000 -s 8 -d -1 -p cbr -e 1000 -c 2 -a 0 -i 63 -k AGT
h -t 3.525000000 -s 8 -d -1 -p cbr -e 1000 -c 2 -a 0 -i 63 -k AGT
+ -t 3.542857143 -s 8 -d -1 -p cbr -e 1000 -c 2 -a 0 -i 64 -k AGT 
- -t 3.542857143 -s 8 -d -1 -p cbr -e 1000 -c 2 -a 0 -i 64 -k AGT
h -t 3.542857143 -s 8 -d -1 -p cbr -e 1000 -c 2 -a 0 -i 64 -k AGT
d -t 3.542857143 -s 8 -d -1 -p cbr -e 1020 -c 2 -a 0 -i 0 -k RTR
+ -t 3.560714286 -s 8 -d -1 -p cbr -e 1000 -c 2 -a 0 -i 65 -k AGT 
- -t 3.560714286 -s 8 -d -1 -p cbr -e 1000 -c 2 -a 0 -i 65 -k AGT
h -t 3.560714286 -s 8 -d -1 -p cbr -e 1000 -c 2 -a 0 -i 65 -k AGT
d -t 3.560714286 -s 8 -d -1 -p cbr -e 1020 -c 2 -a 0 -i 1 -k RTR
+ -t 3.578571429 -s 8 -d -1 -p cbr -e 1000 -c 2 -a 0 -i 66 -k AGT 
- -t 3.578571429 -s 8 -d -1 -p cbr -e 1000 -c 2 -a 0 -i 66 -k AGT
h -t 3.578571429 -s 8 -d -1 -p cbr -e 1000 -c 2 -a 0 -i 66 -k AGT
d -t 3.578571429 -s 8 -d -1 -p cbr -e 1020 -c 2 -a 0 -i 2 -k RTR
+ -t 3.589539658 -s 9 -d -1 -p AODV -e 44 -c 2 -a 0 -i 0 -k RTR 
- -t 3.589539658 -s 9 -d -1 -p AODV -e 44 -c 2 -a 0 -i 0 -k RTR
h -t 3.589539658 -s 9 -d -1 -p AODV -e 44 -c 2 -a 0 -i 0 -k RTR
r -t 3.590695955 -s 6 -d -1 -p AODV -e 44 -c 2 -a 0 -i 0 -k RTR
+ -t 3.596428571 -s 8 -d -1 -p cbr -e 1000 -c 2 -a 0 -i 67 -k AGT 
- -t 3.596428571 -s 8 -d -1 -p cbr -e 1000 -c 2 -a 0 -i 67 -k AGT
h -t 3.596428571 -s 8 -d -1 -p cbr -e 1000 -c 2 -a 0 -i 67 -k AGT
d -t 3.596428571 -s 8 -d -1 -p cbr -e 1020 -c 2 -a 0 -i 3 -k RTR
+ -t 3.614285714 -s 8 -d -1 -p cbr -e 1000 -c 2 -a 0 -i 68 -k AGT 
- -t 3.614285714 -s 8 -d -1 -p cbr -e 1000 -c 2 -a 0 -i 68 -k AGT
h -t 3.614285714 -s 8 -d -1 -p cbr -e 1000 -c 2 -a 0 -i 68 -k AGT
d -t 3.614285714 -s 8 -d -1 -p cbr -e 1020 -c 2 -a 0 -i 4 -k RTR
+ -t 3.632142857 -s 8 -d -1 -p cbr -e 1000 -c 2 -a 0 -i 69 -k AGT 
- -t 3.632142857 -s 8 -d -1 -p cbr -e 1000 -c 2 -a 0 -i 69 -k AGT
h -t 3.632142857 -s 8 -d -1 -p cbr -e 1000 -c 2 -a 0 -i 69 -k AGT
d -t 3.632142857 -s 8 -d -1 -p cbr -e 1020 -c 2 -a 0 -i 5 -k RTR
+ -t 3.639917706 -s 2 -d -1 -p AODV -e 44 -c 2 -a 0 -i 0 -k RTR 
- -t 3.639917706 -s 2 -d -1 -p AODV -e 44 -c 2 -a 0 -i 0 -k RTR
h -t 3.639917706 -s 2 -d -1 -p AODV -e 44 -c 2 -a 0 -i 0 -k RTR
+ -t 3.645266770 -s 7 -d -1 -p AODV -e 44 -c 2 -a 0 -i 0 -k RTR 
- -t 3.645266770 -s 7 -d -1 -p AODV -e 44 -c 2 -a 0 -i 0 -k RTR
h -t 3.645266770 -s 7 -d -1 -p AODV -e 44 -c 2 -a 0 -i 0 -k RTR
+ -t 3.650000000 -s 8 -d -1 -p cbr -e 1000 -c 2 -a 0 -i 70 -k AGT 
- -t 3.650000000 -s 8 -d -1 -p cbr -e 1000 -c 2 -a 0 -i 70 -k AGT
h -t 3.650000000 -s 8 -d -1 -p cbr -e 1000 -c 2 -a 0 -i 70 -k AGT
d -t 3.650000000 -s 8 -d -1 -p cbr -e 1020 -c 2 -a 0 -i 6 -k RTR
+ -t 3.667857143 -s 8 -d -1 -p cbr -e 1000 -c 2 -a 0 -i 71 -k AGT 
- -t 3.667857143 -s 8 -d -1 -p cbr -e 1000 -c 2 -a 0 -i 71 -k AGT
h -t 3.667857143 -s 8 -d -1 -p cbr -e 1000 -c 2 -a 0 -i 71 -k AGT
d -t 3.667857143 -s 8 -d -1 -p cbr -e 1020 -c 2 -a 0 -i 7 -k RTR
+ -t 3.685714286 -s 8 -d -1 -p cbr -e 1000 -c 2 -a 0 -i 72 -k AGT 
- -t 3.685714286 -s 8 -d -1 -p cbr -e 1000 -c 2 -a 0 -i 72 -k AGT
h -t 3.685714286 -s 8 -d -1 -p cbr -e 1000 -c 2 -a 0 -i 72 -k AGT
d -t 3.685714286 -s 8 -d -1 -p cbr -e 1020 -c 2 -a 0 -i 8 -k RTR
+ -t 3.703571429 -s 8 -d -1 -p cbr -e 1000 -c 2 -a 0 -i 73 -k AGT 
- -t 3.703571429 -s 8 -d -1 -p cbr -e 1000 -c 2 -a 0 -i 73 -k AGT
h -t 3.703571429 -s 8 -d -1 -p cbr -e 1000 -c 2 -a 0 -i 73 -k AGT
d -t 3.703571429 -s 8 -d -1 -p cbr -e 1020 -c 2 -a 0 -i 9 -k RTR
+ -t 3.721428571 -s 8 -d -1 -p cbr -e 1000 -c 2 -a 0 -i 74 -k AGT 
- -t 3.721428571 -s 8 -d -1 -p cbr -e 1000 -c 2 -a 0 -i 74 -k AGT
h -t 3.721428571 -s 8 -d -1 -p cbr -e 1000 -c 2 -a 0 -i 74 -k AGT
d -t 3.721428571 -s 8 -d -1 -p cbr -e 1020 -c 2 -a 0 -i 10 -k RTR
+ -t 3.721595722 -s 6 -d -1 -p AODV -e 44 -c 2 -a 0 -i 0 -k RTR 
- -t 3.721595722 -s 6 -d -1 -p AODV -e 44 -c 2 -a 0 -i 0 -k RTR
h -t 3.721595722 -s 6 -d -1 -p AODV -e 44 -c 2 -a 0 -i 0 -k RTR
r -t 3.722552010 -s 9 -d -1 -p AODV -e 44 -c 2 -a 0 -i 0 -k RTR
+ -t 3.739285714 -s 8 -d -1 -p cbr -e 1000 -c 2 -a 0 -i 75 -k AGT 
- -t 3.739285714 -s 8 -d -1 -p cbr -e 1000 -c 2 -a 0 -i 75 -k AGT
h -t 3.739285714 -s 8 -d -1 -p cbr -e 1000 -c 2 -a 0 -i 75 -k AGT
d -t 3.739285714 -s 8 -d -1 -p cbr -e 1020 -c 2 -a 0 -i 11 -k RTR
+ -t 3.754235727 -s 1 -d -1 -p AODV -e 44 -c 2 -a 0 -i 0 -k RTR 
- -t 3.754235727 -s 1 -d -1 -p AODV -e 44 -c 2 -a 0 -i 0 -k RTR
h -t 3.754235727 -s 1 -d -1 -p AODV -e 44 -c 2 -a 0 -i 0 -k RTR
+ -t 3.757142857 -s 8 -d -1 -p cbr -e 1000 -c 2 -a 0 -i 76 -k AGT 
- -t 3.757142857 -s 8 -d -1 -p cbr -e 1000 -c 2 -a 0 -i 76 -k AGT
h -t 3.757142857 -s 8 -d -1 -p cbr -e 1000 -c 2 -a 0 -i 76 -k AGT
d -t 3.757142857 -s 8 -d -1 -p cbr -e 1020 -c 2 -a 0 -i 12 -k RTR
+ -t 3.775000000 -s 8 -d -1 -p cbr -e 1000 -c 2 -a 0 -i 77 -k AGT 
- -t 3.775000000 -s 8 -d -1 -p cbr -e 1000 -c 2 -a 0 -i 77 -k AGT
h -t 3.775000000 -s 8 -d -1 -p cbr -e 1000 -c 2 -a 0 -i 77 -k AGT
d -t 3.775000000 -s 8 -d -1 -p cbr -e 1020 -c 2 -a 0 -i 13 -k RTR
+ -t 3.792857143 -s 8 -d -1 -p cbr -e 1000 -c 2 -a 0 -i 78 -k AGT 
- -t 3.792857143 -s 8 -d -1 -p cbr -e 1000 -c 2 -a 0 -i 78 -k AGT
h -t 3.792857143 -s 8 -d -1 -p cbr -e 1000 -c 2 -a 0 -i 78 -k AGT
d -t 3.792857143 -s 8 -d -1 -p cbr -e 1020 -c 2 -a 0 -i 14 -k RTR
+ -t 3.810714286 -s 8 -d -1 -p cbr -e 1000 -c 2 -a 0 -i 79 -k AGT 
- -t 3.810714286 -s 8 -d -1 -p cbr -e 1000 -c 2 -a 0 -i 79 -k AGT
h -t 3.810714286 -s 8 -d -1 -p cbr -e 1000 -c 2 -a 0 -i 79 -k AGT
d -t 3.810714286 -s 8 -d -1 -p cbr -e 1020 -c 2 -a 0 -i 15 -k RTR
+ -t 3.828571429 -s 8 -d -1 -p cbr -e 1000 -c 2 -a 0 -i 80 -k AGT 
- -t 3.828571429 -s 8 -d -1 -p cbr -e 1000 -c 2 -a 0 -i 80 -k AGT
h -t 3.828571429 -s 8 -d -1 -p cbr -e 1000 -c 2 -a 0 -i 80 -k AGT
d -t 3.828571429 -s 8 -d -1 -p cbr -e 1020 -c 2 -a 0 -i 16 -k RTR
+ -t 3.846428571 -s 8 -d -1 -p cbr -e 1000 -c 2 -a 0 -i 81 -k AGT 
- -t 3.846428571 -s 8 -d -1 -p cbr -e 1000 -c 2 -a 0 -i 81 -k AGT
h -t 3.846428571 -s 8 -d -1 -p cbr -e 1000 -c 2 -a 0 -i 81 -k AGT
d -t 3.846428571 -s 8 -d -1 -p cbr -e 1020 -c 2 -a 0 -i 17 -k RTR
+ -t 3.859343921 -s 0 -d -1 -p AODV -e 44 -c 2 -a 0 -i 0 -k RTR 
- -t 3.859343921 -s 0 -d -1 -p AODV -e 44 -c 2 -a 0 -i 0 -k RTR
h -t 3.859343921 -s 0 -d -1 -p AODV -e 44 -c 2 -a 0 -i 0 -k RTR
+ -t 3.864285714 -s 8 -d -1 -p cbr -e 1000 -c 2 -a 0 -i 82 -k AGT 
- -t 3.864285714 -s 8 -d -1 -p cbr -e 1000 -c 2 -a 0 -i 82 -k AGT
h -t 3.864285714 -s 8 -d -1 -p cbr -e 1000 -c 2 -a 0 -i 82 -k AGT
d -t 3.864285714 -s 8 -d -1 -p cbr -e 1020 -c 2 -a 0 -i 18 -k RTR
+ -t 3.880576647 -s 5 -d -1 -p AODV -e 44 -c 2 -a 0 -i 0 -k RTR 
- -t 3.880576647 -s 5 -d -1 -p AODV -e 44 -c 2 -a 0 -i 0 -k RTR
h -t 3.880576647 -s 5 -d -1 -p AODV -e 44 -c 2 -a 0 -i 0 -k RTR
+ -t 3.882142857 -s 8 -d -1 -p cbr -e 1000 -c 2 -a 0 -i 83 -k AGT 
- -t 3.882142857 -s 8 -d -1 -p cbr -e 1000 -c 2 -a 0 -i 83 -k AGT
h -t 3.882142857 -s 8 -d -1 -p cbr -e 1000 -c 2 -a 0 -i 83 -k AGT
d -t 3.882142857 -s 8 -d -1 -p cbr -e 1020 -c 2 -a 0 -i 19 -k RTR
+ -t 3.900000000 -s 8 -d -1 -p cbr -e 1000 -c 2 -a 0 -i 84 -k AGT 
- -t 3.900000000 -s 8 -d -1 -p cbr -e 1000 -c 2 -a 0 -i 84 -k AGT
h -t 3.900000000 -s 8 -d -1 -p cbr -e 1000 -c 2 -a 0 -i 84 -k AGT
d -t 3.900000000 -s 8 -d -1 -p cbr -e 1020 -c 2 -a 0 -i 20 -k RTR