v 0 eval {set sim_annotation {MOBILE NODE MOVEMENTS}}
s 0.000000000 _0_ RTR  --- 0 AODV 44 [0 0 0 0] [energy 100.000000 ei 0.000 es 0.000 et 0.000 er 0.000] ------- [0:255 -1:255 1 0] [0x1 1 [0 2] 4.000000] (HELLO)
s 0.000000000 _1_ RTR  --- 0 AODV 44 [0 0 0 0] [energy 100.000000 ei 0.000 es 0.000 et 0.000 er 0.000] ------- [1:255 -1:255 1 0] [0x1 1 [1 2] 4.000000] (HELLO)
s 0.000000000 _2_ RTR  --- 0 AODV 44 [0 0 0 0] [energy 100.000000 ei 0.000 es 0.000 et 0.000 er 0.000] ------- [2:255 -1:255 1 0] [0x1 1 [2 2] 4.000000] (HELLO)
s 0.000000000 _3_ RTR  --- 0 AODV 44 [0 0 0 0] [energy 100.000000 ei 0.000 es 0.000 et 0.000 er 0.000] ------- [3:255 -1:255 1 0] [0x1 1 [3 2] 4.000000] (HELLO)
s 0.000000000 _4_ RTR  --- 0 AODV 44 [0 0 0 0] [energy 100.000000 ei 0.000 es 0.000 et 0.000 er 0.000] ------- [4:255 -1:255 1 0] [0x1 1 [4 2] 4.000000] (HELLO)
s 0.000000000 _5_ RTR  --- 0 AODV 44 [0 0 0 0] [energy 100.000000 ei 0.000 es 0.000 et 0.000 er 0.000] ------- [5:255 -1:255 1 0] [0x1 1 [5 2] 4.000000] (HELLO)
s 0.000000000 _6_ RTR  --- 0 AODV 44 [0 0 0 0] [energy 100.000000 ei 0.000 es 0.000 et 0.000 er 0.000] ------- [6:255 -1:255 1 0] [0x1 1 [6 2] 4.000000] (HELLO)
s 0.000000000 _7_ RTR  --- 0 AODV 44 [0 0 0 0] [energy 100.000000 ei 0.000 es 0.000 et 0.000 er 0.000] ------- [7:255 -1:255 1 0] [0x1 1 [7 2] 4.000000] (HELLO)
s 0.000000000 _8_ RTR  --- 0 AODV 44 [0 0 0 0] [energy 100.000000 ei 0.000 es 0.000 et 0.000 er 0.000] ------- [8:255 -1:255 1 0] [0x1 1 [8 2] 4.000000] (HELLO)
s 0.000000000 _9_ RTR  --- 0 AODV 44 [0 0 0 0] [energy 100.000000 ei 0.000 es 0.000 et 0.000 er 0.000] ------- [9:255 -1:255 1 0] [0x1 1 [9 2] 4.000000] (HELLO)
s 0.000000000 _10_ RTR  --- 0 AODV 44 [0 0 0 0] [energy 100.000000 ei 0.000 es 0.000 et 0.000 er 0.000] ------- [10:255 -1:255 1 0] [0x1 1 [10 2] 4.000000] (HELLO)
s 0.000000000 _11_ RTR  --- 0 AODV 44 [0 0 0 0] [energy 100.000000 ei 0.000 es 0.000 et 0.000 er 0.000] ------- [11:255 -1:255 1 0] [0x1 1 [11 2] 4.000000] (HELLO)
s 0.000000000 _12_ RTR  --- 0 AODV 44 [0 0 0 0] [energy 100.000000 ei 0.000 es 0.000 et 0.000 er 0.000] ------- [12:255 -1:255 1 0] [0x1 1 [12 2] 4.000000] (HELLO)
s 0.000000000 _13_ RTR  --- 0 AODV 44 [0 0 0 0] [energy 100.000000 ei 0.000 es 0.000 et 0.000 er 0.000] ------- [13:255 -1:255 1 0] [0x1 1 [13 2] 4.000000] (HELLO)
s 0.000000000 _14_ RTR  --- 0 AODV 44 [0 0 0 0] [energy 100.000000 ei 0.000 es 0.000 et 0.000 er 0.000] ------- [14:255 -1:255 1 0] [0x1 1 [14 2] 4.000000] (HELLO)
s 0.000000000 _15_ RTR  --- 0 AODV 44 [0 0 0 0] [energy 100.000000 ei 0.000 es 0.000 et 0.000 er 0.000] ------- [15:255 -1:255 1 0] [0x1 1 [15 2] 4.000000] (HELLO)
s 0.000000000 _16_ RTR  --- 0 AODV 44 [0 0 0 0] [energy 100.000000 ei 0.000 es 0.000 et 0.000 er 0.000] ------- [16:255 -1:255 1 0] [0x1 1 [16 2] 4.000000] (HELLO)
s 0.000000000 _17_ RTR  --- 0 AODV 44 [0 0 0 0] [energy 100.000000 ei 0.000 es 0.000 et 0.000 er 0.000] ------- [17:255 -1:255 1 0] [0x1 1 [17 2] 4.000000] (HELLO)
s 0.000000000 _18_ RTR  --- 0 AODV 44 [0 0 0 0] [energy 100.000000 ei 0.000 es 0.000 et 0.000 er 0.000] ------- [18:255 -1:255 1 0] [0x1 1 [18 2] 4.000000] (HELLO)
s 0.000000000 _19_ RTR  --- 0 AODV 44 [0 0 0 0] [energy 100.000000 ei 0.000 es 0.000 et 0.000 er 0.000] ------- [19:255 -1:255 1 0] [0x1 1 [19 2] 4.000000] (HELLO)
s 0.000000000 _20_ RTR  --- 0 AODV 44 [0 0 0 0] [energy 100.000000 ei 0.000 es 0.000 et 0.000 er 0.000] ------- [20:255 -1:255 1 0] [0x1 1 [20 2] 4.000000] (HELLO)
N -t 0.000095 -n 12 -e 99.999974
N -t 0.000095 -n 7 -e 99.999974
N -t 0.000255 -n 15 -e 99.999971
r 0.001096294 _15_ RTR  --- 0 AODV 44 [0 ffffffff 10 800] [energy 99.999971 ei 0.000 es 0.000 et 0.000 er 0.000] ------- [16:255 -1:255 1 0] [0x1 1 [16 2] 4.000000] (HELLO)
N -t 0.001442 -n 16 -e 99.999945
r 0.002282589 _16_ RTR  --- 0 AODV 44 [0 ffffffff f 800] [energy 99.999945 ei 0.000 es 0.000 et 0.000 er 0.000] ------- [15:255 -1:255 1 0] [0x1 1 [15 2] 4.000000] (HELLO)
M 0.20000 2 (201.00, 552.00, 0.00), (309.00, 211.00), 20.00
M 0.20000 18 (741.00, 152.00, 0.00), (159.00, 722.00), 20.00
M 0.25000 11 (569.00, 167.00, 0.00), (551.00, 624.00), 25.00
M 0.50000 10 (519.00, 361.00, 0.00), (598.00, 728.00), 25.00
M 0.75000 0 (36.00, 529.00, 0.00), (379.00, 349.00), 20.00
M 0.75000 1 (143.00, 666.00, 0.00), (556.00, 302.00), 20.00
M 0.75000 4 (230.00, 291.00, 0.00), (139.00, 63.00), 20.00
M 0.75000 5 (295.00, 419.00, 0.00), (320.00, 27.00), 20.00
M 0.75000 16 (630.00, 626.00, 0.00), (741.00, 809.00), 20.00
M 0.75000 17 (666.00, 347.00, 0.00), (437.00, 799.00), 20.00
M 0.75000 20 (761.00, 441.00, 0.00), (839.00, 444.00), 20.00
s 0.768497388 _1_ RTR  --- 0 AODV 44 [0 0 0 0] [energy 99.999974 ei 0.000 es 0.000 et 0.000 er 0.000] ------- [1:255 -1:255 1 0] [0x1 1 [1 2] 4.000000] (HELLO)
s 0.794581116 _10_ RTR  --- 0 AODV 44 [0 0 0 0] [energy 99.999974 ei 0.000 es 0.000 et 0.000 er 0.000] ------- [10:255 -1:255 1 0] [0x1 1 [10 2] 4.000000] (HELLO)
s 0.822854311 _15_ RTR  --- 0 AODV 44 [0 0 0 0] [energy 99.999945 ei 0.000 es 0.000 et 0.000 er 0.000] ------- [15:255 -1:255 1 0] [0x1 1 [15 4] 4.000000] (HELLO)
N -t 0.823410 -n 16 -e 99.999332
r 0.824250602 _16_ RTR  --- 0 AODV 44 [0 ffffffff f 800] [energy 99.999332 ei 0.001 es 0.000 et 0.000 er 0.000] ------- [15:255 -1:255 1 0] [0x1 1 [15 4] 4.000000] (HELLO)
s 0.867007238 _8_ RTR  --- 0 AODV 44 [0 0 0 0] [energy 99.999974 ei 0.000 es 0.000 et 0.000 er 0.000] ------- [8:255 -1:255 1 0] [0x1 1 [8 2] 4.000000] (HELLO)
s 0.894838269 _16_ RTR  --- 0 AODV 44 [0 0 0 0] [energy 99.999332 ei 0.001 es 0.000 et 0.000 er 0.000] ------- [16:255 -1:255 1 0] [0x1 1 [16 4] 4.000000] (HELLO)
N -t 0.895354 -n 15 -e 99.999256
r 0.896194557 _15_ RTR  --- 0 AODV 44 [0 ffffffff 10 800] [energy 99.999256 ei 0.001 es 0.000 et 0.000 er 0.000] ------- [16:255 -1:255 1 0] [0x1 1 [16 4] 4.000000] (HELLO)
s 0.904401880 _11_ RTR  --- 0 AODV 44 [0 0 0 0] [energy 99.999974 ei 0.000 es 0.000 et 0.000 er 0.000] ------- [11:255 -1:255 1 0] [0x1 1 [11 2] 4.000000] (HELLO)
s 1.004979264 _18_ RTR  --- 0 AODV 44 [0 0 0 0] [energy 99.999974 ei 0.000 es 0.000 et 0.000 er 0.000] ------- [18:255 -1:255 1 0] [0x1 1 [18 2] 4.000000] (HELLO)
s 1.016840538 _2_ RTR  --- 0 AODV 44 [0 0 0 0] [energy 99.999974 ei 0.000 es 0.000 et 0.000 er 0.000] ------- [2:255 -1:255 1 0] [0x1 1 [2 2] 4.000000] (HELLO)
s 1.025002698 _5_ RTR  --- 0 AODV 44 [0 0 0 0] [energy 99.999974 ei 0.000 es 0.000 et 0.000 er 0.000] ------- [5:255 -1:255 1 0] [0x1 1 [5 2] 4.000000] (HELLO)
N -t 1.025378 -n 6 -e 99.999216
s 1.028463763 _17_ RTR  --- 0 AODV 44 [0 0 0 0] [energy 99.999974 ei 0.000 es 0.000 et 0.000 er 0.000] ------- [17:255 -1:255 1 0] [0x1 1 [17 2] 4.000000] (HELLO)
s 1.032581679 _20_ RTR  --- 0 AODV 44 [0 0 0 0] [energy 99.999974 ei 0.000 es 0.000 et 0.000 er 0.000] ------- [20:255 -1:255 1 0] [0x1 1 [20 2] 4.000000] (HELLO)
s 1.048240450 _14_ RTR  --- 0 AODV 44 [0 0 0 0] [energy 99.999974 ei 0.000 es 0.000 et 0.000 er 0.000] ------- [14:255 -1:255 1 0] [0x1 1 [14 2] 4.000000] (HELLO)
s 1.080757913 _9_ RTR  --- 0 AODV 44 [0 0 0 0] [energy 99.999974 ei 0.000 es 0.000 et 0.000 er 0.000] ------- [9:255 -1:255 1 0] [0x1 1 [9 2] 4.000000] (HELLO)
s 1.174719450 _3_ RTR  --- 0 AODV 44 [0 0 0 0] [energy 99.999974 ei 0.000 es 0.000 et 0.000 er 0.000] ------- [3:255 -1:255 1 0] [0x1 1 [3 2] 4.000000] (HELLO)
s 1.225194557 _12_ RTR  --- 0 AODV 44 [0 0 0 0] [energy 99.999974 ei 0.000 es 0.000 et 0.000 er 0.000] ------- [12:255 -1:255 1 0] [0x1 1 [12 2] 4.000000] (HELLO)
N -t 1.225290 -n 7 -e 99.999074
s 1.229528259 _6_ RTR  --- 0 AODV 44 [0 0 0 0] [energy 99.999216 ei 0.001 es 0.000 et 0.000 er 0.000] ------- [6:255 -1:255 1 0] [0x1 1 [6 2] 4.000000] (HELLO)
N -t 1.230164 -n 5 -e 99.999045
s 1.232639976 _19_ RTR  --- 0 AODV 44 [0 0 0 0] [energy 99.999974 ei 0.000 es 0.000 et 0.000 er 0.000] ------- [19:255 -1:255 1 0] [0x1 1 [19 2] 4.000000] (HELLO)
s 1.235039364 _4_ RTR  --- 0 AODV 44 [0 0 0 0] [energy 99.999974 ei 0.000 es 0.000 et 0.000 er 0.000] ------- [4:255 -1:255 1 0] [0x1 1 [4 2] 4.000000] (HELLO)
s 1.236109891 _7_ RTR  --- 0 AODV 44 [0 0 0 0] [energy 99.999074 ei 0.001 es 0.000 et 0.000 er 0.000] ------- [7:255 -1:255 1 0] [0x1 1 [7 2] 4.000000] (HELLO)
N -t 1.236365 -n 12 -e 99.999041
s 1.246509046 _0_ RTR  --- 0 AODV 44 [0 0 0 0] [energy 99.999974 ei 0.000 es 0.000 et 0.000 er 0.000] ------- [0:255 -1:255 1 0] [0x1 1 [0 2] 4.000000] (HELLO)
s 1.247973810 _13_ RTR  --- 0 AODV 44 [0 0 0 0] [energy 99.999974 ei 0.000 es 0.000 et 0.000 er 0.000] ------- [13:255 -1:255 1 0] [0x1 1 [13 2] 4.000000] (HELLO)
M 1.25000 3 (147.00, 403.00, 0.00), (179.00, 333.00), 20.00
M 1.25000 7 (334.00, 647.00, 0.00), (274.00, 487.00), 20.00
M 1.25000 8 (304.00, 777.00, 0.00), (494.00, 475.00), 20.00
M 1.25000 9 (412.00, 194.00, 0.00), (899.00, 757.00), 25.00
M 1.25000 12 (349.00, 546.00, 0.00), (397.00, 647.00), 25.00
M 1.25000 13 (466.00, 668.00, 0.00), (748.00, 688.00), 25.00
M 1.25000 14 (489.00, 794.00, 0.00), (842.00, 623.00), 25.00
M 1.25000 15 (606.00, 711.00, 0.00), (678.00, 548.00), 25.00
M 1.25000 19 (882.00, 264.00, 0.00), (700.00, 350.00), 20.00
M 1.50000 6 (363.00, 335.00, 0.00), (505.00, 124.00), 20.00
s 1.575611498 _15_ RTR  --- 0 AODV 44 [0 0 0 0] [energy 99.999256 ei 0.001 es 0.000 et 0.000 er 0.000] ------- [15:255 -1:255 1 0] [0x1 1 [15 4] 4.000000] (HELLO)
N -t 1.575947 -n 16 -e 99.998743
r 1.576787730 _16_ RTR  --- 0 AODV 44 [0 ffffffff f 800] [energy 99.998743 ei 0.001 es 0.000 et 0.000 er 0.000] ------- [15:255 -1:255 1 0] [0x1 1 [15 4] 4.000000] (HELLO)
s 1.677334438 _8_ RTR  --- 0 AODV 44 [0 0 0 0] [energy 99.999332 ei 0.001 es 0.000 et 0.000 er 0.000] ------- [8:255 -1:255 1 0] [0x1 1 [8 2] 4.000000] (HELLO)
s 1.740042994 _10_ RTR  --- 0 AODV 44 [0 0 0 0] [energy 99.999384 ei 0.001 es 0.000 et 0.000 er 0.000] ------- [10:255 -1:255 1 0] [0x1 1 [10 2] 4.000000] (HELLO)
s 1.811736300 _18_ RTR  --- 0 AODV 44 [0 0 0 0] [energy 99.999234 ei 0.001 es 0.000 et 0.000 er 0.000] ------- [18:255 -1:255 1 0] [0x1 1 [18 2] 4.000000] (HELLO)
s 1.817904024 _11_ RTR  --- 0 AODV 44 [0 0 0 0] [energy 99.999305 ei 0.001 es 0.000 et 0.000 er 0.000] ------- [11:255 -1:255 1 0] [0x1 1 [11 2] 4.000000] (HELLO)
s 1.829264845 _17_ RTR  --- 0 AODV 44 [0 0 0 0] [energy 99.999217 ei 0.001 es 0.000 et 0.000 er 0.000] ------- [17:255 -1:255 1 0] [0x1 1 [17 2] 4.000000] (HELLO)
s 1.933496940 _2_ RTR  --- 0 AODV 44 [0 0 0 0] [energy 99.999225 ei 0.001 es 0.000 et 0.000 er 0.000] ------- [2:255 -1:255 1 0] [0x1 1 [2 2] 4.000000] (HELLO)
s 1.947852346 _16_ RTR  --- 0 AODV 44 [0 0 0 0] [energy 99.998743 ei 0.001 es 0.000 et 0.000 er 0.000] ------- [16:255 -1:255 1 0] [0x1 1 [16 4] 4.000000] (HELLO)
N -t 1.948268 -n 15 -e 99.998453
r 1.949108535 _15_ RTR  --- 0 AODV 44 [0 ffffffff 10 800] [energy 99.998453 ei 0.001 es 0.000 et 0.000 er 0.000] ------- [16:255 -1:255 1 0] [0x1 1 [16 4] 4.000000] (HELLO)
s 1.975106549 _1_ RTR  --- 0 AODV 44 [0 0 0 0] [energy 99.999402 ei 0.001 es 0.000 et 0.000 er 0.000] ------- [1:255 -1:255 1 0] [0x1 1 [1 2] 4.000000] (HELLO)
s 2.013034256 _7_ RTR  --- 0 AODV 44 [0 0 0 0] [energy 99.999041 ei 0.001 es 0.000 et 0.000 er 0.000] ------- [7:255 -1:255 1 0] [0x1 1 [7 2] 4.000000] (HELLO)
N -t 2.013210 -n 12 -e 99.998460
r 2.014050506 _12_ RTR  --- 0 AODV 44 [0 ffffffff 7 800] [energy 99.998460 ei 0.001 es 0.000 et 0.000 er 0.000] ------- [7:255 -1:255 1 0] [0x1 1 [7 2] 4.000000] (HELLO)
s 2.040494288 _5_ RTR  --- 0 AODV 44 [0 0 0 0] [energy 99.999045 ei 0.001 es 0.000 et 0.000 er 0.000] ------- [5:255 -1:255 1 0] [0x1 1 [5 2] 4.000000] (HELLO)
N -t 2.040650 -n 6 -e 99.998440
r 2.041490617 _6_ RTR  --- 0 AODV 44 [0 ffffffff 5 800] [energy 99.998440 ei 0.001 es 0.000 et 0.000 er 0.000] ------- [5:255 -1:255 1 0] [0x1 1 [5 2] 4.000000] (HELLO)
s 2.052569657 _12_ RTR  --- 0 AODV 44 [0 0 0 0] [energy 99.998460 ei 0.001 es 0.000 et 0.000 er 0.000] ------- [12:255 -1:255 1 0] [0x1 1 [12 4] 4.000000] (HELLO)
N -t 2.052685 -n 7 -e 99.998407
r 2.053525903 _7_ RTR  --- 0 AODV 44 [0 ffffffff c 800] [energy 99.998407 ei 0.001 es 0.000 et 0.000 er 0.000] ------- [12:255 -1:255 1 0] [0x1 1 [12 4] 4.000000] (HELLO)
s 2.070942587 _0_ RTR  --- 0 AODV 44 [0 0 0 0] [energy 99.999062 ei 0.001 es 0.000 et 0.000 er 0.000] ------- [0:255 -1:255 1 0] [0x1 1 [0 2] 4.000000] (HELLO)
s 2.109144734 _4_ RTR  --- 0 AODV 44 [0 0 0 0] [energy 99.999070 ei 0.001 es 0.000 et 0.000 er 0.000] ------- [4:255 -1:255 1 0] [0x1 1 [4 2] 4.000000] (HELLO)
s 2.160618865 _14_ RTR  --- 0 AODV 44 [0 0 0 0] [energy 99.999203 ei 0.001 es 0.000 et 0.000 er 0.000] ------- [14:255 -1:255 1 0] [0x1 1 [14 2] 4.000000] (HELLO)
s 2.178683443 _6_ RTR  --- 0 AODV 44 [0 0 0 0] [energy 99.998440 ei 0.001 es 0.000 et 0.000 er 0.000] ------- [6:255 -1:255 1 0] [0x1 1 [6 4] 4.000000] (HELLO)
N -t 2.178759 -n 5 -e 99.998317
r 2.179599774 _5_ RTR  --- 0 AODV 44 [0 ffffffff 6 800] [energy 99.998317 ei 0.002 es 0.000 et 0.000 er 0.000] ------- [6:255 -1:255 1 0] [0x1 1 [6 4] 4.000000] (HELLO)
s 2.249401682 _20_ RTR  --- 0 AODV 44 [0 0 0 0] [energy 99.999214 ei 0.001 es 0.000 et 0.000 er 0.000] ------- [20:255 -1:255 1 0] [0x1 1 [20 2] 4.000000] (HELLO)
s 2.258872819 _19_ RTR  --- 0 AODV 44 [0 0 0 0] [energy 99.999072 ei 0.001 es 0.000 et 0.000 er 0.000] ------- [19:255 -1:255 1 0] [0x1 1 [19 2] 4.000000] (HELLO)
s 2.290361107 _3_ RTR  --- 0 AODV 44 [0 0 0 0] [energy 99.999113 ei 0.001 es 0.000 et 0.000 er 0.000] ------- [3:255 -1:255 1 0] [0x1 1 [3 2] 4.000000] (HELLO)
s 2.296168646 _9_ RTR  --- 0 AODV 44 [0 0 0 0] [energy 99.999180 ei 0.001 es 0.000 et 0.000 er 0.000] ------- [9:255 -1:255 1 0] [0x1 1 [9 2] 4.000000] (HELLO)
s 2.317743719 _13_ RTR  --- 0 AODV 44 [0 0 0 0] [energy 99.999060 ei 0.001 es 0.000 et 0.000 er 0.000] ------- [13:255 -1:255 1 0] [0x1 1 [13 2] 4.000000] (HELLO)
s 2.400000000 _19_ AGT  --- 0 cbr 1000 [0 0 0 0] [energy 99.998316 ei 0.002 es 0.000 et 0.000 er 0.000] ------- [19:0 18:0 32 0] [0] 0 0
r 2.400000000 _19_ RTR  --- 0 cbr 1000 [0 0 0 0] [energy 99.998316 ei 0.002 es 0.000 et 0.000 er 0.000] ------- [19:0 18:0 32 0] [0] 0 0
s 2.400000000 _19_ RTR  --- 0 AODV 48 [0 0 0 0] [energy 99.998316 ei 0.002 es 0.000 et 0.000 er 0.000] ------- [19:255 -1:255 30 0] [0x2 1 1 [18 0] [19 4]] (REQUEST)
s 2.417857143 _19_ AGT  --- 1 cbr 1000 [0 0 0 0] [energy 99.998190 ei 0.002 es 0.000 et 0.000 er 0.000] ------- [19:0 18:0 32 0] [1] 0 0
r 2.417857143 _19_ RTR  --- 1 cbr 1000 [0 0 0 0] [energy 99.998190 ei 0.002 es 0.000 et 0.000 er 0.000] ------- [19:0 18:0 32 0] [1] 0 0
s 2.435714286 _19_ AGT  --- 2 cbr 1000 [0 0 0 0] [energy 99.998190 ei 0.002 es 0.000 et 0.000 er 0.000] ------- [19:0 18:0 32 0] [2] 0 0
r 2.435714286 _19_ RTR  --- 2 cbr 1000 [0 0 0 0] [energy 99.998190 ei 0.002 es 0.000 et 0.000 er 0.000] ------- [19:0 18:0 32 0] [2] 0 0
s 2.453571429 _19_ AGT  --- 3 cbr 1000 [0 0 0 0] [energy 99.998190 ei 0.002 es 0.000 et 0.000 er 0.000] ------- [19:0 18:0 32 0] [3] 0 0
r 2.453571429 _19_ RTR  --- 3 cbr 1000 [0 0 0 0] [energy 99.998190 ei 0.002 es 0.000 et 0.000 er 0.000] ------- [19:0 18:0 32 0] [3] 0 0
s 2.471428571 _19_ AGT  --- 4 cbr 1000 [0 0 0 0] [energy 99.998190 ei 0.002 es 0.000 et 0.000 er 0.000] ------- [19:0 18:0 32 0] [4] 0 0
r 2.471428571 _19_ RTR  --- 4 cbr 1000 [0 0 0 0] [energy 99.998190 ei 0.002 es 0.000 et 0.000 er 0.000] ------- [19:0 18:0 32 0] [4] 0 0
s 2.489285714 _19_ AGT  --- 5 cbr 1000 [0 0 0 0] [energy 99.998190 ei 0.002 es 0.000 et 0.000 er 0.000] ------- [19:0 18:0 32 0] [5] 0 0
r 2.489285714 _19_ RTR  --- 5 cbr 1000 [0 0 0 0] [energy 99.998190 ei 0.002 es 0.000 et 0.000 er 0.000] ------- [19:0 18:0 32 0] [5] 0 0
s 2.507142857 _19_ AGT  --- 6 cbr 1000 [0 0 0 0] [energy 99.998190 ei 0.002 es 0.000 et 0.000 er 0.000] ------- [19:0 18:0 32 0] [6] 0 0
r 2.507142857 _19_ RTR  --- 6 cbr 1000 [0 0 0 0] [energy 99.998190 ei 0.002 es 0.000 et 0.000 er 0.000] ------- [19:0 18:0 32 0] [6] 0 0
s 2.525000000 _19_ AGT  --- 7 cbr 1000 [0 0 0 0] [energy 99.998190 ei 0.002 es 0.000 et 0.000 er 0.000] ------- [19:0 18:0 32 0] [7] 0 0
r 2.525000000 _19_ RTR  --- 7 cbr 1000 [0 0 0 0] [energy 99.998190 ei 0.002 es 0.000 et 0.000 er 0.000] ------- [19:0 18:0 32 0] [7] 0 0
s 2.542857143 _19_ AGT  --- 8 cbr 1000 [0 0 0 0] [energy 99.998190 ei 0.002 es 0.000 et 0.000 er 0.000] ------- [19:0 18:0 32 0] [8] 0 0
r 2.542857143 _19_ RTR  --- 8 cbr 1000 [0 0 0 0] [energy 99.998190 ei 0.002 es 0.000 et 0.000 er 0.000] ------- [19:0 18:0 32 0] [8] 0 0
s 2.560714286 _19_ AGT  --- 9 cbr 1000 [0 0 0 0] [energy 99.998190 ei 0.002 es 0.000 et 0.000 er 0.000] ------- [19:0 18:0 32 0] [9] 0 0
r 2.560714286 _19_ RTR  --- 9 cbr 1000 [0 0 0 0] [energy 99.998190 ei 0.002 es 0.000 et 0.000 er 0.000] ------- [19:0 18:0 32 0] [9] 0 0
s 2.571336016 _11_ RTR  --- 0 AODV 44 [0 0 0 0] [energy 99.998630 ei 0.001 es 0.000 et 0.000 er 0.000] ------- [11:255 -1:255 1 0] [0x1 1 [11 2] 4.000000] (HELLO)
s 2.578571429 _19_ AGT  --- 10 cbr 1000 [0 0 0 0] [energy 99.998190 ei 0.002 es 0.000 et 0.000 er 0.000] ------- [19:0 18:0 32 0] [10] 0 0
r 2.578571429 _19_ RTR  --- 10 cbr 1000 [0 0 0 0] [energy 99.998190 ei 0.002 es 0.000 et 0.000 er 0.000] ------- [19:0 18:0 32 0] [10] 0 0
s 2.596428571 _19_ AGT  --- 11 cbr 1000 [0 0 0 0] [energy 99.998190 ei 0.002 es 0.000 et 0.000 er 0.000] ------- [19:0 18:0 32 0] [11] 0 0
r 2.596428571 _19_ RTR  --- 11 cbr 1000 [0 0 0 0] [energy 99.998190 ei 0.002 es 0.000 et 0.000 er 0.000] ------- [19:0 18:0 32 0] [11] 0 0
s 2.614285714 _19_ AGT  --- 12 cbr 1000 [0 0 0 0] [energy 99.998190 ei 0.002 es 0.000 et 0.000 er 0.000] ------- [19:0 18:0 32 0] [12] 0 0
r 2.614285714 _19_ RTR  --- 12 cbr 1000 [0 0 0 0] [energy 99.998190 ei 0.002 es 0.000 et 0.000 er 0.000] ------- [19:0 18:0 32 0] [12] 0 0
s 2.632142857 _19_ AGT  --- 13 cbr 1000 [0 0 0 0] [energy 99.998190 ei 0.002 es 0.000 et 0.000 er 0.000] ------- [19:0 18:0 32 0] [13] 0 0
r 2.632142857 _19_ RTR  --- 13 cbr 1000 [0 0 0 0] [energy 99.998190 ei 0.002 es 0.000 et 0.000 er 0.000] ------- [19:0 18:0 32 0] [13] 0 0
s 2.650000000 _19_ AGT  --- 14 cbr 1000 [0 0 0 0] [energy 99.998190 ei 0.002 es 0.000 et 0.000 er 0.000] ------- [19:0 18:0 32 0] [14] 0 0
r 2.650000000 _19_ RTR  --- 14 cbr 1000 [0 0 0 0] [energy 99.998190 ei 0.002 es 0.000 et 0.000 er 0.000] ------- [19:0 18:0 32 0] [14] 0 0
s 2.666689576 _15_ RTR  --- 0 AODV 44 [0 0 0 0] [energy 99.998453 ei 0.001 es 0.000 et 0.000 er 0.000] ------- [15:255 -1:255 1 0] [0x1 1 [15 4] 4.000000] (HELLO)
N -t 2.666985 -n 16 -e 99.997913
r 2.667825695 _16_ RTR  --- 0 AODV 44 [0 ffffffff f 800] [energy 99.997913 ei 0.002 es 0.000 et 0.000 er 0.000] ------- [15:255 -1:255 1 0] [0x1 1 [15 4] 4.000000] (HELLO)
s 2.667857143 _19_ AGT  --- 15 cbr 1000 [0 0 0 0] [energy 99.998190 ei 0.002 es 0.000 et 0.000 er 0.000] ------- [19:0 18:0 32 0] [15] 0 0
r 2.667857143 _19_ RTR  --- 15 cbr 1000 [0 0 0 0] [energy 99.998190 ei 0.002 es 0.000 et 0.000 er 0.000] ------- [19:0 18:0 32 0] [15] 0 0
s 2.685714286 _19_ AGT  --- 16 cbr 1000 [0 0 0 0] [energy 99.998190 ei 0.002 es 0.000 et 0.000 er 0.000] ------- [19:0 18:0 32 0] [16] 0 0
r 2.685714286 _19_ RTR  --- 16 cbr 1000 [0 0 0 0] [energy 99.998190 ei 0.002 es 0.000 et 0.000 er 0.000] ------- [19:0 18:0 32 0] [16] 0 0
s 2.703571429 _19_ AGT  --- 17 cbr 1000 [0 0 0 0] [energy 99.998190 ei 0.002 es 0.000 et 0.000 er 0.000] ------- [19:0 18:0 32 0] [17] 0 0
r 2.703571429 _19_ RTR  --- 17 cbr 1000 [0 0 0 0] [energy 99.998190 ei 0.002 es 0.000 et 0.000 er 0.000] ------- [19:0 18:0 32 0] [17] 0 0
s 2.721428571 _19_ AGT  --- 18 cbr 1000 [0 0 0 0] [energy 99.998190 ei 0.002 es 0.000 et 0.000 er 0.000] ------- [19:0 18:0 32 0] [18] 0 0
r 2.721428571 _19_ RTR  --- 18 cbr 1000 [0 0 0 0] [energy 99.998190 ei 0.002 es 0.000 et 0.000 er 0.000] ------- [19:0 18:0 32 0] [18] 0 0
s 2.725428697 _16_ RTR  --- 0 AODV 44 [0 0 0 0] [energy 99.997913 ei 0.002 es 0.000 et 0.000 er 0.000] ------- [16:255 -1:255 1 0] [0x1 1 [16 4] 4.000000] (HELLO)
N -t 2.725704 -n 15 -e 99.997846
r 2.726544811 _15_ RTR  --- 0 AODV 44 [0 ffffffff 10 800] [energy 99.997846 ei 0.002 es 0.000 et 0.000 er 0.000] ------- [16:255 -1:255 1 0] [0x1 1 [16 4] 4.000000] (HELLO)
s 2.733883429 _10_ RTR  --- 0 AODV 44 [0 0 0 0] [energy 99.998685 ei 0.001 es 0.000 et 0.000 er 0.000] ------- [10:255 -1:255 1 0] [0x1 1 [10 2] 4.000000] (HELLO)
s 2.739285714 _19_ AGT  --- 19 cbr 1000 [0 0 0 0] [energy 99.998190 ei 0.002 es 0.000 et 0.000 er 0.000] ------- [19:0 18:0 32 0] [19] 0 0
r 2.739285714 _19_ RTR  --- 19 cbr 1000 [0 0 0 0] [energy 99.998190 ei 0.002 es 0.000 et 0.000 er 0.000] ------- [19:0 18:0 32 0] [19] 0 0
s 2.757142857 _19_ AGT  --- 20 cbr 1000 [0 0 0 0] [energy 99.998190 ei 0.002 es 0.000 et 0.000 er 0.000] ------- [19:0 18:0 32 0] [20] 0 0
r 2.757142857 _19_ RTR  --- 20 cbr 1000 [0 0 0 0] [energy 99.998190 ei 0.002 es 0.000 et 0.000 er 0.000] ------- [19:0 18:0 32 0] [20] 0 0
s 2.757293308 _18_ RTR  --- 0 AODV 44 [0 0 0 0] [energy 99.998634 ei 0.001 es 0.000 et 0.000 er 0.000] ------- [18:255 -1:255 1 0] [0x1 1 [18 2] 4.000000] (HELLO)
s 2.775000000 _19_ AGT  --- 21 cbr 1000 [0 0 0 0] [energy 99.998190 ei 0.002 es 0.000 et 0.000 er 0.000] ------- [19:0 18:0 32 0] [21] 0 0
r 2.775000000 _19_ RTR  --- 21 cbr 1000 [0 0 0 0] [energy 99.998190 ei 0.002 es 0.000 et 0.000 er 0.000] ------- [19:0 18:0 32 0] [21] 0 0
s 2.792042524 _8_ RTR  --- 0 AODV 44 [0 0 0 0] [energy 99.998730 ei 0.001 es 0.000 et 0.000 er 0.000] ------- [8:255 -1:255 1 0] [0x1 1 [8 2] 4.000000] (HELLO)
s 2.792857143 _19_ AGT  --- 22 cbr 1000 [0 0 0 0] [energy 99.998190 ei 0.002 es 0.000 et 0.000 er 0.000] ------- [19:0 18:0 32 0] [22] 0 0
r 2.792857143 _19_ RTR  --- 22 cbr 1000 [0 0 0 0] [energy 99.998190 ei 0.002 es 0.000 et 0.000 er 0.000] ------- [19:0 18:0 32 0] [22] 0 0
s 2.810714286 _19_ AGT  --- 23 cbr 1000 [0 0 0 0] [energy 99.998190 ei 0.002 es 0.000 et 0.000 er 0.000] ------- [19:0 18:0 32 0] [23] 0 0
r 2.810714286 _19_ RTR  --- 23 cbr 1000 [0 0 0 0] [energy 99.998190 ei 0.002 es 0.000 et 0.000 er 0.000] ------- [19:0 18:0 32 0] [23] 0 0
s 2.828571429 _19_ AGT  --- 24 cbr 1000 [0 0 0 0] [energy 99.998190 ei 0.002 es 0.000 et 0.000 er 0.000] ------- [19:0 18:0 32 0] [24] 0 0
r 2.828571429 _19_ RTR  --- 24 cbr 1000 [0 0 0 0] [energy 99.998190 ei 0.002 es 0.000 et 0.000 er 0.000] ------- [19:0 18:0 32 0] [24] 0 0
s 2.846428571 _19_ AGT  --- 25 cbr 1000 [0 0 0 0] [energy 99.998190 ei 0.002 es 0.000 et 0.000 er 0.000] ------- [19:0 18:0 32 0] [25] 0 0
r 2.846428571 _19_ RTR  --- 25 cbr 1000 [0 0 0 0] [energy 99.998190 ei 0.002 es 0.000 et 0.000 er 0.000] ------- [19:0 18:0 32 0] [25] 0 0
s 2.864285714 _19_ AGT  --- 26 cbr 1000 [0 0 0 0] [energy 99.998190 ei 0.002 es 0.000 et 0.000 er 0.000] ------- [19:0 18:0 32 0] [26] 0 0
r 2.864285714 _19_ RTR  --- 26 cbr 1000 [0 0 0 0] [energy 99.998190 ei 0.002 es 0.000 et 0.000 er 0.000] ------- [19:0 18:0 32 0] [26] 0 0
s 2.882142857 _19_ AGT  --- 27 cbr 1000 [0 0 0 0] [energy 99.998190 ei 0.002 es 0.000 et 0.000 er 0.000] ------- [19:0 18:0 32 0] [27] 0 0
r 2.882142857 _19_ RTR  --- 27 cbr 1000 [0 0 0 0] [energy 99.998190 ei 0.002 es 0.000 et 0.000 er 0.000] ------- [19:0 18:0 32 0] [27] 0 0
s 2.900000000 _19_ AGT  --- 28 cbr 1000 [0 0 0 0] [energy 99.998190 ei 0.002 es 0.000 et 0.000 er 0.000] ------- [19:0 18:0 32 0] [28] 0 0
r 2.900000000 _19_ RTR  --- 28 cbr 1000 [0 0 0 0] [energy 99.998190 ei 0.002 es 0.000 et 0.000 er 0.000] ------- [19:0 18:0 32 0] [28] 0 0
s 2.916934626 _7_ RTR  --- 0 AODV 44 [0 0 0 0] [energy 99.998407 ei 0.001 es 0.000 et 0.000 er 0.000] ------- [7:255 -1:255 1 0] [0x1 1 [7 4] 4.000000] (HELLO)
N -t 2.917210 -n 12 -e 99.997763
s 2.917857143 _19_ AGT  --- 29 cbr 1000 [0 0 0 0] [energy 99.998190 ei 0.002 es 0.000 et 0.000 er 0.000] ------- [19:0 18:0 32 0] [29] 0 0
r 2.917857143 _19_ RTR  --- 29 cbr 1000 [0 0 0 0] [energy 99.998190 ei 0.002 es 0.000 et 0.000 er 0.000] ------- [19:0 18:0 32 0] [29] 0 0
r 2.918050809 _12_ RTR  --- 0 AODV 44 [0 ffffffff 7 800] [energy 99.997763 ei 0.002 es 0.000 et 0.000 er 0.000] ------- [7:255 -1:255 1 0] [0x1 1 [7 4] 4.000000] (HELLO)
s 2.935714286 _19_ AGT  --- 30 cbr 1000 [0 0 0 0] [energy 99.998190 ei 0.002 es 0.000 et 0.000 er 0.000] ------- [19:0 18:0 32 0] [30] 0 0
r 2.935714286 _19_ RTR  --- 30 cbr 1000 [0 0 0 0] [energy 99.998190 ei 0.002 es 0.000 et 0.000 er 0.000] ------- [19:0 18:0 32 0] [30] 0 0
s 2.953571429 _19_ AGT  --- 31 cbr 1000 [0 0 0 0] [energy 99.998190 ei 0.002 es 0.000 et 0.000 er 0.000] ------- [19:0 18:0 32 0] [31] 0 0
r 2.953571429 _19_ RTR  --- 31 cbr 1000 [0 0 0 0] [energy 99.998190 ei 0.002 es 0.000 et 0.000 er 0.000] ------- [19:0 18:0 32 0] [31] 0 0
s 2.971428571 _19_ AGT  --- 32 cbr 1000 [0 0 0 0] [energy 99.998190 ei 0.002 es 0.000 et 0.000 er 0.000] ------- [19:0 18:0 32 0] [32] 0 0
r 2.971428571 _19_ RTR  --- 32 cbr 1000 [0 0 0 0] [energy 99.998190 ei 0.002 es 0.000 et 0.000 er 0.000] ------- [19:0 18:0 32 0] [32] 0 0
s 2.983869695 _17_ RTR  --- 0 AODV 44 [0 0 0 0] [energy 99.998622 ei 0.001 es 0.000 et 0.000 er 0.000] ------- [17:255 -1:255 1 0] [0x1 1 [17 2] 4.000000] (HELLO)
s 2.989285714 _19_ AGT  --- 33 cbr 1000 [0 0 0 0] [energy 99.998190 ei 0.002 es 0.000 et 0.000 er 0.000] ------- [19:0 18:0 32 0] [33] 0 0
r 2.989285714 _19_ RTR  --- 33 cbr 1000 [0 0 0 0] [energy 99.998190 ei 0.002 es 0.000 et 0.000 er 0.000] ------- [19:0 18:0 32 0] [33] 0 0
s 3.007142857 _19_ AGT  --- 34 cbr 1000 [0 0 0 0] [energy 99.998190 ei 0.002 es 0.000 et 0.000 er 0.000] ------- [19:0 18:0 32 0] [34] 0 0
r 3.007142857 _19_ RTR  --- 34 cbr 1000 [0 0 0 0] [energy 99.998190 ei 0.002 es 0.000 et 0.000 er 0.000] ------- [19:0 18:0 32 0] [34] 0 0
s 3.020608407 _1_ RTR  --- 0 AODV 44 [0 0 0 0] [energy 99.998518 ei 0.001 es 0.000 et 0.000 er 0.000] ------- [1:255 -1:255 1 0] [0x1 1 [1 2] 4.000000] (HELLO)
s 3.025000000 _19_ AGT  --- 35 cbr 1000 [0 0 0 0] [energy 99.998190 ei 0.002 es 0.000 et 0.000 er 0.000] ------- [19:0 18:0 32 0] [35] 0 0
r 3.025000000 _19_ RTR  --- 35 cbr 1000 [0 0 0 0] [energy 99.998190 ei 0.002 es 0.000 et 0.000 er 0.000] ------- [19:0 18:0 32 0] [35] 0 0
s 3.042857143 _19_ AGT  --- 36 cbr 1000 [0 0 0 0] [energy 99.998190 ei 0.002 es 0.000 et 0.000 er 0.000] ------- [19:0 18:0 32 0] [36] 0 0
r 3.042857143 _19_ RTR  --- 36 cbr 1000 [0 0 0 0] [energy 99.998190 ei 0.002 es 0.000 et 0.000 er 0.000] ------- [19:0 18:0 32 0] [36] 0 0
s 3.051248981 _6_ RTR  --- 0 AODV 44 [0 0 0 0] [energy 99.998317 ei 0.002 es 0.000 et 0.000 er 0.000] ------- [6:255 -1:255 1 0] [0x1 1 [6 4] 4.000000] (HELLO)
N -t 3.051724 -n 9 -e 99.997723
N -t 3.051724 -n 5 -e 99.997667
s 3.060714286 _19_ AGT  --- 37 cbr 1000 [0 0 0 0] [energy 99.998190 ei 0.002 es 0.000 et 0.000 er 0.000] ------- [19:0 18:0 32 0] [37] 0 0
r 3.060714286 _19_ RTR  --- 37 cbr 1000 [0 0 0 0] [energy 99.998190 ei 0.002 es 0.000 et 0.000 er 0.000] ------- [19:0 18:0 32 0] [37] 0 0
s 3.063698106 _12_ RTR  --- 0 AODV 44 [0 0 0 0] [energy 99.997763 ei 0.002 es 0.000 et 0.000 er 0.000] ------- [12:255 -1:255 1 0] [0x1 1 [12 4] 4.000000] (HELLO)
N -t 3.064073 -n 7 -e 99.997633
r 3.064914285 _7_ RTR  --- 0 AODV 44 [0 ffffffff c 800] [energy 99.997633 ei 0.002 es 0.000 et 0.000 er 0.000] ------- [12:255 -1:255 1 0] [0x1 1 [12 4] 4.000000] (HELLO)
s 3.078571429 _19_ AGT  --- 38 cbr 1000 [0 0 0 0] [energy 99.998190 ei 0.002 es 0.000 et 0.000 er 0.000] ------- [19:0 18:0 32 0] [38] 0 0
r 3.078571429 _19_ RTR  --- 38 cbr 1000 [0 0 0 0] [energy 99.998190 ei 0.002 es 0.000 et 0.000 er 0.000] ------- [19:0 18:0 32 0] [38] 0 0
s 3.096428571 _19_ AGT  --- 39 cbr 1000 [0 0 0 0] [energy 99.998190 ei 0.002 es 0.000 et 0.000 er 0.000] ------- [19:0 18:0 32 0] [39] 0 0
r 3.096428571 _19_ RTR  --- 39 cbr 1000 [0 0 0 0] [energy 99.998190 ei 0.002 es 0.000 et 0.000 er 0.000] ------- [19:0 18:0 32 0] [39] 0 0
s 3.114285714 _19_ AGT  --- 40 cbr 1000 [0 0 0 0] [energy 99.998190 ei 0.002 es 0.000 et 0.000 er 0.000] ------- [19:0 18:0 32 0] [40] 0 0
r 3.114285714 _19_ RTR  --- 40 cbr 1000 [0 0 0 0] [energy 99.998190 ei 0.002 es 0.000 et 0.000 er 0.000] ------- [19:0 18:0 32 0] [40] 0 0
s 3.132142857 _19_ AGT  --- 41 cbr 1000 [0 0 0 0] [energy 99.998190 ei 0.002 es 0.000 et 0.000 er 0.000] ------- [19:0 18:0 32 0] [41] 0 0
r 3.132142857 _19_ RTR  --- 41 cbr 1000 [0 0 0 0] [energy 99.998190 ei 0.002 es 0.000 et 0.000 er 0.000] ------- [19:0 18:0 32 0] [41] 0 0
s 3.150000000 _19_ AGT  --- 42 cbr 1000 [0 0 0 0] [energy 99.998190 ei 0.002 es 0.000 et 0.000 er 0.000] ------- [19:0 18:0 32 0] [42] 0 0
r 3.150000000 _19_ RTR  --- 42 cbr 1000 [0 0 0 0] [energy 99.998190 ei 0.002 es 0.000 et 0.000 er 0.000] ------- [19:0 18:0 32 0] [42] 0 0
s 3.157352974 _20_ RTR  --- 0 AODV 44 [0 0 0 0] [energy 99.998323 ei 0.002 es 0.000 et 0.000 er 0.000] ------- [20:255 -1:255 1 0] [0x1 1 [20 2] 4.000000] (HELLO)
s 3.161180328 _2_ RTR  --- 0 AODV 44 [0 0 0 0] [energy 99.998547 ei 0.001 es 0.000 et 0.000 er 0.000] ------- [2:255 -1:255 1 0] [0x1 1 [2 2] 4.000000] (HELLO)
s 3.167857143 _19_ AGT  --- 43 cbr 1000 [0 0 0 0] [energy 99.998190 ei 0.002 es 0.000 et 0.000 er 0.000] ------- [19:0 18:0 32 0] [43] 0 0
r 3.167857143 _19_ RTR  --- 43 cbr 1000 [0 0 0 0] [energy 99.998190 ei 0.002 es 0.000 et 0.000 er 0.000] ------- [19:0 18:0 32 0] [43] 0 0
s 3.168422990 _3_ RTR  --- 0 AODV 44 [0 0 0 0] [energy 99.998293 ei 0.002 es 0.000 et 0.000 er 0.000] ------- [3:255 -1:255 1 0] [0x1 1 [3 2] 4.000000] (HELLO)
s 3.185714286 _19_ AGT  --- 44 cbr 1000 [0 0 0 0] [energy 99.998190 ei 0.002 es 0.000 et 0.000 er 0.000] ------- [19:0 18:0 32 0] [44] 0 0
r 3.185714286 _19_ RTR  --- 44 cbr 1000 [0 0 0 0] [energy 99.998190 ei 0.002 es 0.000 et 0.000 er 0.000] ------- [19:0 18:0 32 0] [44] 0 0
s 3.186122460 _4_ RTR  --- 0 AODV 44 [0 0 0 0] [energy 99.998422 ei 0.002 es 0.000 et 0.000 er 0.000] ------- [4:255 -1:255 1 0] [0x1 1 [4 2] 4.000000] (HELLO)
s 3.203571429 _19_ AGT  --- 45 cbr 1000 [0 0 0 0] [energy 99.998190 ei 0.002 es 0.000 et 0.000 er 0.000] ------- [19:0 18:0 32 0] [45] 0 0
r 3.203571429 _19_ RTR  --- 45 cbr 1000 [0 0 0 0] [energy 99.998190 ei 0.002 es 0.000 et 0.000 er 0.000] ------- [19:0 18:0 32 0] [45] 0 0