n -t * -s 0  -x 36 -y 529 -Z 0 -z 70  -v circle -c green
n -t * -s 1  -x 143 -y 666 -Z 0 -z 70  -v circle -c green
n -t * -s 2  -x 201 -y 552 -Z 0 -z 70  -v circle -c green
n -t * -s 3  -x 147 -y 403 -Z 0 -z 70  -v circle -c green
n -t * -s 4  -x 230 -y 291 -Z 0 -z 70  -v circle -c green
n -t * -s 5  -x 295 -y 419 -Z 0 -z 70  -v circle -c green
n -t * -s 6  -x 363 -y 335 -Z 0 -z 70  -v circle -c green
n -t * -s 7  -x 334 -y 647 -Z 0 -z 70  -v circle -c green
n -t * -s 8  -x 304 -y 777 -Z 0 -z 70  -v circle -c green
n -t * -s 9  -x 412 -y 194 -Z 0 -z 70  -v circle -c green
n -t * -s 10  -x 519 -y 361 -Z 0 -z 70  -v circle -c green
n -t * -s 11  -x 569 -y 167 -Z 0 -z 70  -v circle -c green
n -t * -s 12  -x 349 -y 546 -Z 0 -z 70  -v circle -c green
n -t * -s 13  -x 466 -y 668 -Z 0 -z 70  -v circle -c green
n -t * -s 14  -x 489 -y 794 -Z 0 -z 70  -v circle -c green
n -t * -s 15  -x 606 -y 711 -Z 0 -z 70  -v circle -c green
n -t * -s 16  -x 630 -y 626 -Z 0 -z 70  -v circle -c green
n -t * -s 17  -x 666 -y 347 -Z 0 -z 70  -v circle -c green
n -t * -s 18  -x 741 -y 152 -Z 0 -z 70  -v circle -c green
n -t * -s 19  -x 882 -y 264 -Z 0 -z 70  -v circle -c green
n -t * -s 20  -x 761 -y 441 -Z 0 -z 70  -v circle -c green
V -t * -v 1.0a5 -a 0
W -t * -x 1800 -y 840
A -t * -n 1 -p 0 -o 0x7fffffff -c 30 -a 1
A -t * -h 1 -m 1073741823 -s 0
n -t 0 -s 0 -S DLABEL -l "Source" -L ""
n -t 0 -s 1 -S DLABEL -l "A" -L ""
n -t 0 -s 2 -S DLABEL -l "B" -L ""
n -t 0 -s 3 -S DLABEL -l "C" -L ""
n -t 0 -s 4 -S DLABEL -l "E" -L ""
n -t 0 -s 5 -S DLABEL -l "F" -L ""
n -t 0 -s 6 -S DLABEL -l "G" -L ""
n -t 0 -s 7 -S DLABEL -l "H" -L ""
n -t 0 -s 8 -S DLABEL -l "I" -L ""
n -t 0 -s 9 -S DLABEL -l "J" -L ""
n -t 0 -s 10 -S DLABEL -l "K" -L ""
n -t 0 -s 11 -S DLABEL -l "L" -L ""
n -t 0 -s 12 -S DLABEL -l "M" -L ""
n -t 0 -s 13 -S DLABEL -l "N" -L ""
n -t 0 -s 14 -S DLABEL -l "O" -L ""
n -t 0 -s 15 -S DLABEL -l "P" -L ""
n -t 0 -s 16 -S DLABEL -l "Q" -L ""
n -t 0 -s 17 -S DLABEL -l "R" -L ""
n -t 0 -s 18 -S DLABEL -l "T" -L ""
n -t 0 -s 19 -S DLABEL -l "Destination" -L ""
n -t 0 -s 20 -S DLABEL -l "U" -L ""
v -t 0 set_rate_ext 0.012500000000000001 1
v -t 0 -e sim_annotation 0 1 MOBILE NODE MOVEMENTS
+ -t 0.000000000 -s 0 -d -1 -p AODV -e 44 -c 2 -a 0 -i 0 -k RTR 
- -t 0.000000000 -s 0 -d -1 -p AODV -e 44 -c 2 -a 0 -i 0 -k RTR
h -t 0.000000000 -s 0 -d -1 -p AODV -e 44 -c 2 -a 0 -i 0 -k RTR
+ -t 0.000000000 -s 1 -d -1 -p AODV -e 44 -c 2 -a 0 -i 0 -k RTR 
- -t 0.000000000 -s 1 -d -1 -p AODV -e 44 -c 2 -a 0 -i 0 -k RTR
h -t 0.000000000 -s 1 -d -1 -p AODV -e 44 -c 2 -a 0 -i 0 -k RTR
+ -t 0.000000000 -s 2 -d -1 -p AODV -e 44 -c 2 -a 0 -i 0 -k RTR 
- -t 0.000000000 -s 2 -d -1 -p AODV -e 44 -c 2 -a 0 -i 0 -k RTR
h -t 0.000000000 -s 2 -d -1 -p AODV -e 44 -c 2 -a 0 -i 0 -k RTR
+ -t 0.000000000 -s 3 -d -1 -p AODV -e 44 -c 2 -a 0 -i 0 -k RTR 
- -t 0.000000000 -s 3 -d -1 -p AODV -e 44 -c 2 -a 0 -i 0 -k RTR
h -t 0.000000000 -s 3 -d -1 -p AODV -e 44 -c 2 -a 0 -i 0 -k RTR
+ -t 0.000000000 -s 4 -d -1 -p AODV -e 44 -c 2 -a 0 -i 0 -k RTR 
- -t 0.000000000 -s 4 -d -1 -p AODV -e 44 -c 2 -a 0 -i 0 -k RTR
h -t 0.000000000 -s 4 -d -1 -p AODV -e 44 -c 2 -a 0 -i 0 -k RTR
+ -t 0.000000000 -s 5 -d -1 -p AODV -e 44 -c 2 -a 0 -i 0 -k RTR 
- -t 0.000000000 -s 5 -d -1 -p AODV -e 44 -c 2 -a 0 -i 0 -k RTR
h -t 0.000000000 -s 5 -d -1 -p AODV -e 44 -c 2 -a 0 -i 0 -k RTR
+ -t 0.000000000 -s 6 -d -1 -p AODV -e 44 -c 2 -a 0 -i 0 -k RTR 
- -t 0.000000000 -s 6 -d -1 -p AODV -e 44 -c 2 -a 0 -i 0 -k RTR
h -t 0.000000000 -s 6 -d -1 -p AODV -e 44 -c 2 -a 0 -i 0 -k RTR
+ -t 0.000000000 -s 7 -d -1 -p AODV -e 44 -c 2 -a 0 -i 0 -k RTR 
- -t 0.000000000 -s 7 -d -1 -p AODV -e 44 -c 2 -a 0 -i 0 -k RTR
h -t 0.000000000 -s 7 -d -1 -p AODV -e 44 -c 2 -a 0 -i 0 -k RTR
+ -t 0.000000000 -s 8 -d -1 -p AODV -e 44 -c 2 -a 0 -i 0 -k RTR 
- -t 0.000000000 -s 8 -d -1 -p AODV -e 44 -c 2 -a 0 -i 0 -k RTR
h -t 0.000000000 -s 8 -d -1 -p AODV -e 44 -c 2 -a 0 -i 0 -k RTR
+ -t 0.000000000 -s 9 -d -1 -p AODV -e 44 -c 2 -a 0 -i 0 -k RTR 
- -t 0.000000000 -s 9 -d -1 -p AODV -e 44 -c 2 -a 0 -i 0 -k RTR
h -t 0.000000000 -s 9 -d -1 -p AODV -e 44 -c 2 -a 0 -i 0 -k RTR
+ -t 0.000000000 -s 10 -d -1 -p AODV -e 44 -c 2 -a 0 -i 0 -k RTR 
- -t 0.000000000 -s 10 -d -1 -p AODV -e 44 -c 2 -a 0 -i 0 -k RTR
h -t 0.000000000 -s 10 -d -1 -p AODV -e 44 -c 2 -a 0 -i 0 -k RTR
+ -t 0.000000000 -s 11 -d -1 -p AODV -e 44 -c 2 -a 0 -i 0 -k RTR 
- -t 0.000000000 -s 11 -d -1 -p AODV -e 44 -c 2 -a 0 -i 0 -k RTR
h -t 0.000000000 -s 11 -d -1 -p AODV -e 44 -c 2 -a 0 -i 0 -k RTR
+ -t 0.000000000 -s 12 -d -1 -p AODV -e 44 -c 2 -a 0 -i 0 -k RTR 
- -t 0.000000000 -s 12 -d -1 -p AODV -e 44 -c 2 -a 0 -i 0 -k RTR
h -t 0.000000000 -s 12 -d -1 -p AODV -e 44 -c 2 -a 0 -i 0 -k RTR
+ -t 0.000000000 -s 13 -d -1 -p AODV -e 44 -c 2 -a 0 -i 0 -k RTR 
- -t 0.000000000 -s 13 -d -1 -p AODV -e 44 -c 2 -a 0 -i 0 -k RTR
h -t 0.000000000 -s 13 -d -1 -p AODV -e 44 -c 2 -a 0 -i 0 -k RTR
+ -t 0.000000000 -s 14 -d -1 -p AODV -e 44 -c 2 -a 0 -i 0 -k RTR 
- -t 0.000000000 -s 14 -d -1 -p AODV -e 44 -c 2 -a 0 -i 0 -k RTR
h -t 0.000000000 -s 14 -d -1 -p AODV -e 44 -c 2 -a 0 -i 0 -k RTR
+ -t 0.000000000 -s 15 -d -1 -p AODV -e 44 -c 2 -a 0 -i 0 -k RTR 
- -t 0.000000000 -s 15 -d -1 -p AODV -e 44 -c 2 -a 0 -i 0 -k RTR
h -t 0.000000000 -s 15 -d -1 -p AODV -e 44 -c 2 -a 0 -i 0 -k RTR
+ -t 0.000000000 -s 16 -d -1 -p AODV -e 44 -c 2 -a 0 -i 0 -k RTR 
- -t 0.000000000 -s 16 -d -1 -p AODV -e 44 -c 2 -a 0 -i 0 -k RTR
h -t 0.000000000 -s 16 -d -1 -p AODV -e 44 -c 2 -a 0 -i 0 -k RTR
+ -t 0.000000000 -s 17 -d -1 -p AODV -e 44 -c 2 -a 0 -i 0 -k RTR 
- -t 0.000000000 -s 17 -d -1 -p AODV -e 44 -c 2 -a 0 -i 0 -k RTR
h -t 0.000000000 -s 17 -d -1 -p AODV -e 44 -c 2 -a 0 -i 0 -k RTR
+ -t 0.000000000 -s 18 -d -1 -p AODV -e 44 -c 2 -a 0 -i 0 -k RTR 
- -t 0.000000000 -s 18 -d -1 -p AODV -e 44 -c 2 -a 0 -i 0 -k RTR
h -t 0.000000000 -s 18 -d -1 -p AODV -e 44 -c 2 -a 0 -i 0 -k RTR
+ -t 0.000000000 -s 19 -d -1 -p AODV -e 44 -c 2 -a 0 -i 0 -k RTR 
- -t 0.000000000 -s 19 -d -1 -p AODV -e 44 -c 2 -a 0 -i 0 -k RTR
h -t 0.000000000 -s 19 -d -1 -p AODV -e 44 -c 2 -a 0 -i 0 -k RTR
+ -t 0.000000000 -s 20 -d -1 -p AODV -e 44 -c 2 -a 0 -i 0 -k RTR 
- -t 0.000000000 -s 20 -d -1 -p AODV -e 44 -c 2 -a 0 -i 0 -k RTR
h -t 0.000000000 -s 20 -d -1 -p AODV -e 44 -c 2 -a 0 -i 0 -k RTR
r -t 0.001096294 -s 15 -d -1 -p AODV -e 44 -c 2 -a 0 -i 0 -k RTR
r -t 0.002282589 -s 16 -d -1 -p AODV -e 44 -c 2 -a 0 -i 0 -k RTR
n -t 0.200000 -s 2 -x 201.000000 -y 552.000000 -U 6.038681 -V -19.066576 -T 17.884700
n -t 0.200000 -s 18 -x 741.000000 -y 152.000000 -U -14.288674 -V 13.994063 -T 40.731560
n -t 0.250000 -s 11 -x 569.000000 -y 167.000000 -U -0.983920 -V 24.980631 -T 18.294174
n -t 0.500000 -s 10 -x 519.000000 -y 361.000000 -U 5.260965 -V 24.440177 -T 15.016258
n -t 0.750000 -s 0 -x 36.000000 -y 529.000000 -U 17.709552 -V -9.293642 -T 19.368079
n -t 0.750000 -s 1 -x 143.000000 -y 666.000000 -U 15.004176 -V -13.224020 -T 27.525670
n -t 0.750000 -s 4 -x 230.000000 -y 291.000000 -U -7.413765 -V -18.575147 -T 12.274465
n -t 0.750000 -s 5 -x 295.000000 -y 419.000000 -U 1.272924 -V -19.959450 -T 19.639819
n -t 0.750000 -s 16 -x 630.000000 -y 626.000000 -U 10.372246 -V 17.100190 -T 10.701635
n -t 0.750000 -s 17 -x 666.000000 -y 347.000000 -U -9.038877 -V 17.840928 -T 25.335005
n -t 0.750000 -s 20 -x 761.000000 -y 441.000000 -U 19.985223 -V 0.768662 -T 3.902884
+ -t 0.768497388 -s 1 -d -1 -p AODV -e 44 -c 2 -a 0 -i 0 -k RTR 
- -t 0.768497388 -s 1 -d -1 -p AODV -e 44 -c 2 -a 0 -i 0 -k RTR
h -t 0.768497388 -s 1 -d -1 -p AODV -e 44 -c 2 -a 0 -i 0 -k RTR
+ -t 0.794581116 -s 10 -d -1 -p AODV -e 44 -c 2 -a 0 -i 0 -k RTR 
- -t 0.794581116 -s 10 -d -1 -p AODV -e 44 -c 2 -a 0 -i 0 -k RTR
h -t 0.794581116 -s 10 -d -1 -p AODV -e 44 -c 2 -a 0 -i 0 -k RTR
+ -t 0.822854311 -s 15 -d -1 -p AODV -e 44 -c 2 -a 0 -i 0 -k RTR 
- -t 0.822854311 -s 15 -d -1 -p AODV -e 44 -c 2 -a 0 -i 0 -k RTR
h -t 0.822854311 -s 15 -d -1 -p AODV -e 44 -c 2 -a 0 -i 0 -k RTR
r -t 0.824250602 -s 16 -d -1 -p AODV -e 44 -c 2 -a 0 -i 0 -k RTR
+ -t 0.867007238 -s 8 -d -1 -p AODV -e 44 -c 2 -a 0 -i 0 -k RTR 
- -t 0.867007238 -s 8 -d -1 -p AODV -e 44 -c 2 -a 0 -i 0 -k RTR
h -t 0.867007238 -s 8 -d -1 -p AODV -e 44 -c 2 -a 0 -i 0 -k RTR
+ -t 0.894838269 -s 16 -d -1 -p AODV -e 44 -c 2 -a 0 -i 0 -k RTR 
- -t 0.894838269 -s 16 -d -1 -p AODV -e 44 -c 2 -a 0 -i 0 -k RTR
h -t 0.894838269 -s 16 -d -1 -p AODV -e 44 -c 2 -a 0 -i 0 -k RTR
r -t 0.896194557 -s 15 -d -1 -p AODV -e 44 -c 2 -a 0 -i 0 -k RTR
+ -t 0.904401880 -s 11 -d -1 -p AODV -e 44 -c 2 -a 0 -i 0 -k RTR 
- -t 0.904401880 -s 11 -d -1 -p AODV -e 44 -c 2 -a 0 -i 0 -k RTR
h -t 0.904401880 -s 11 -d -1 -p AODV -e 44 -c 2 -a 0 -i 0 -k RTR
+ -t 1.004979264 -s 18 -d -1 -p AODV -e 44 -c 2 -a 0 -i 0 -k RTR 
- -t 1.004979264 -s 18 -d -1 -p AODV -e 44 -c 2 -a 0 -i 0 -k RTR
h -t 1.004979264 -s 18 -d -1 -p AODV -e 44 -c 2 -a 0 -i 0 -k RTR
+ -t 1.016840538 -s 2 -d -1 -p AODV -e 44 -c 2 -a 0 -i 0 -k RTR 
- -t 1.016840538 -s 2 -d -1 -p AODV -e 44 -c 2 -a 0 -i 0 -k RTR
h -t 1.016840538 -s 2 -d -1 -p AODV -e 44 -c 2 -a 0 -i 0 -k RTR
+ -t 1.025002698 -s 5 -d -1 -p AODV -e 44 -c 2 -a 0 -i 0 -k RTR 
- -t 1.025002698 -s 5 -d -1 -p AODV -e 44 -c 2 -a 0 -i 0 -k RTR
h -t 1.025002698 -s 5 -d -1 -p AODV -e 44 -c 2 -a 0 -i 0 -k RTR
+ -t 1.028463763 -s 17 -d -1 -p AODV -e 44 -c 2 -a 0 -i 0 -k RTR 
- -t 1.028463763 -s 17 -d -1 -p AODV -e 44 -c 2 -a 0 -i 0 -k RTR
h -t 1.028463763 -s 17 -d -1 -p AODV -e 44 -c 2 -a 0 -i 0 -k RTR
+ -t 1.032581679 -s 20 -d -1 -p AODV -e 44 -c 2 -a 0 -i 0 -k RTR 
- -t 1.032581679 -s 20 -d -1 -p AODV -e 44 -c 2 -a 0 -i 0 -k RTR
h -t 1.032581679 -s 20 -d -1 -p AODV -e 44 -c 2 -a 0 -i 0 -k RTR
+ -t 1.048240450 -s 14 -d -1 -p AODV -e 44 -c 2 -a 0 -i 0 -k RTR 
- -t 1.048240450 -s 14 -d -1 -p AODV -e 44 -c 2 -a 0 -i 0 -k RTR
h -t 1.048240450 -s 14 -d -1 -p AODV -e 44 -c 2 -a 0 -i 0 -k RTR
+ -t 1.080757913 -s 9 -d -1 -p AODV -e 44 -c 2 -a 0 -i 0 -k RTR 
- -t 1.080757913 -s 9 -d -1 -p AODV -e 44 -c 2 -a 0 -i 0 -k RTR
h -t 1.080757913 -s 9 -d -1 -p AODV -e 44 -c 2 -a 0 -i 0 -k RTR
+ -t 1.174719450 -s 3 -d -1 -p AODV -e 44 -c 2 -a 0 -i 0 -k RTR 
- -t 1.174719450 -s 3 -d -1 -p AODV -e 44 -c 2 -a 0 -i 0 -k RTR
h -t 1.174719450 -s 3 -d -1 -p AODV -e 44 -c 2 -a 0 -i 0 -k RTR
+ -t 1.225194557 -s 12 -d -1 -p AODV -e 44 -c 2 -a 0 -i 0 -k RTR 
- -t 1.225194557 -s 12 -d -1 -p AODV -e 44 -c 2 -a 0 -i 0 -k RTR
h -t 1.225194557 -s 12 -d -1 -p AODV -e 44 -c 2 -a 0 -i 0 -k RTR
+ -t 1.229528259 -s 6 -d -1 -p AODV -e 44 -c 2 -a 0 -i 0 -k RTR 
- -t 1.229528259 -s 6 -d -1 -p AODV -e 44 -c 2 -a 0 -i 0 -k RTR
h -t 1.229528259 -s 6 -d -1 -p AODV -e 44 -c 2 -a 0 -i 0 -k RTR
+ -t 1.232639976 -s 19 -d -1 -p AODV -e 44 -c 2 -a 0 -i 0 -k RTR 
- -t 1.232639976 -s 19 -d -1 -p AODV -e 44 -c 2 -a 0 -i 0 -k RTR
h -t 1.232639976 -s 19 -d -1 -p AODV -e 44 -c 2 -a 0 -i 0 -k RTR
+ -t 1.235039364 -s 4 -d -1 -p AODV -e 44 -c 2 -a 0 -i 0 -k RTR 
- -t 1.235039364 -s 4 -d -1 -p AODV -e 44 -c 2 -a 0 -i 0 -k RTR
h -t 1.235039364 -s 4 -d -1 -p AODV -e 44 -c 2 -a 0 -i 0 -k RTR
+ -t 1.236109891 -s 7 -d -1 -p AODV -e 44 -c 2 -a 0 -i 0 -k RTR 
- -t 1.236109891 -s 7 -d -1 -p AODV -e 44 -c 2 -a 0 -i 0 -k RTR
h -t 1.236109891 -s 7 -d -1 -p AODV -e 44 -c 2 -a 0 -i 0 -k RTR
+ -t 1.246509046 -s 0 -d -1 -p AODV -e 44 -c 2 -a 0 -i 0 -k RTR 
- -t 1.246509046 -s 0 -d -1 -p AODV -e 44 -c 2 -a 0 -i 0 -k RTR
h -t 1.246509046 -s 0 -d -1 -p AODV -e 44 -c 2 -a 0 -i 0 -k RTR
+ -t 1.247973810 -s 13 -d -1 -p AODV -e 44 -c 2 -a 0 -i 0 -k RTR 
- -t 1.247973810 -s 13 -d -1 -p AODV -e 44 -c 2 -a 0 -i 0 -k RTR
h -t 1.247973810 -s 13 -d -1 -p AODV -e 44 -c 2 -a 0 -i 0 -k RTR
n -t 1.250000 -s 3 -x 147.000000 -y 403.000000 -U 8.315195 -V -18.189490 -T 3.848376
n -t 1.250000 -s 7 -x 334.000000 -y 647.000000 -U -7.022469 -V -18.726584 -T 8.544004
n -t 1.250000 -s 8 -x 304.000000 -y 777.000000 -U 10.650318 -V -16.928400 -T 17.839843
n -t 1.250000 -s 9 -x 412.000000 -y 194.000000 -U 16.355356 -V 18.907732 -T 29.776178
n -t 1.250000 -s 12 -x 349.000000 -y 546.000000 -U 10.730980 -V 22.579771 -T 4.473030
n -t 1.250000 -s 13 -x 466.000000 -y 668.000000 -U 24.937362 -V 1.768607 -T 11.308333
n -t 1.250000 -s 14 -x 489.000000 -y 794.000000 -U 22.499142 -V -10.899018 -T 15.689487
n -t 1.250000 -s 15 -x 606.000000 -y 711.000000 -U 10.101366 -V -22.868371 -T 7.127749
n -t 1.250000 -s 19 -x 882.000000 -y 264.000000 -U -18.082841 -V 8.544639 -T 10.064790
n -t 1.500000 -s 6 -x 363.000000 -y 335.000000 -U 11.166487 -V -16.592455 -T 12.716623
+ -t 1.575611498 -s 15 -d -1 -p AODV -e 44 -c 2 -a 0 -i 0 -k RTR 
- -t 1.575611498 -s 15 -d -1 -p AODV -e 44 -c 2 -a 0 -i 0 -k RTR
h -t 1.575611498 -s 15 -d -1 -p AODV -e 44 -c 2 -a 0 -i 0 -k RTR
r -t 1.576787730 -s 16 -d -1 -p AODV -e 44 -c 2 -a 0 -i 0 -k RTR
+ -t 1.677334438 -s 8 -d -1 -p AODV -e 44 -c 2 -a 0 -i 0 -k RTR 
- -t 1.677334438 -s 8 -d -1 -p AODV -e 44 -c 2 -a 0 -i 0 -k RTR
h -t 1.677334438 -s 8 -d -1 -p AODV -e 44 -c 2 -a 0 -i 0 -k RTR
+ -t 1.740042994 -s 10 -d -1 -p AODV -e 44 -c 2 -a 0 -i 0 -k RTR 
- -t 1.740042994 -s 10 -d -1 -p AODV -e 44 -c 2 -a 0 -i 0 -k RTR
h -t 1.740042994 -s 10 -d -1 -p AODV -e 44 -c 2 -a 0 -i 0 -k RTR
+ -t 1.811736300 -s 18 -d -1 -p AODV -e 44 -c 2 -a 0 -i 0 -k RTR 
- -t 1.811736300 -s 18 -d -1 -p AODV -e 44 -c 2 -a 0 -i 0 -k RTR
h -t 1.811736300 -s 18 -d -1 -p AODV -e 44 -c 2 -a 0 -i 0 -k RTR
+ -t 1.817904024 -s 11 -d -1 -p AODV -e 44 -c 2 -a 0 -i 0 -k RTR 
- -t 1.817904024 -s 11 -d -1 -p AODV -e 44 -c 2 -a 0 -i 0 -k RTR
h -t 1.817904024 -s 11 -d -1 -p AODV -e 44 -c 2 -a 0 -i 0 -k RTR
+ -t 1.829264845 -s 17 -d -1 -p AODV -e 44 -c 2 -a 0 -i 0 -k RTR 
- -t 1.829264845 -s 17 -d -1 -p AODV -e 44 -c 2 -a 0 -i 0 -k RTR
h -t 1.829264845 -s 17 -d -1 -p AODV -e 44 -c 2 -a 0 -i 0 -k RTR
+ -t 1.933496940 -s 2 -d -1 -p AODV -e 44 -c 2 -a 0 -i 0 -k RTR 
- -t 1.933496940 -s 2 -d -1 -p AODV -e 44 -c 2 -a 0 -i 0 -k RTR
h -t 1.933496940 -s 2 -d -1 -p AODV -e 44 -c 2 -a 0 -i 0 -k RTR
+ -t 1.947852346 -s 16 -d -1 -p AODV -e 44 -c 2 -a 0 -i 0 -k RTR 
- -t 1.947852346 -s 16 -d -1 -p AODV -e 44 -c 2 -a 0 -i 0 -k RTR
h -t 1.947852346 -s 16 -d -1 -p AODV -e 44 -c 2 -a 0 -i 0 -k RTR
r -t 1.949108535 -s 15 -d -1 -p AODV -e 44 -c 2 -a 0 -i 0 -k RTR
+ -t 1.975106549 -s 1 -d -1 -p AODV -e 44 -c 2 -a 0 -i 0 -k RTR 
- -t 1.975106549 -s 1 -d -1 -p AODV -e 44 -c 2 -a 0 -i 0 -k RTR
h -t 1.975106549 -s 1 -d -1 -p AODV -e 44 -c 2 -a 0 -i 0 -k RTR
+ -t 2.013034256 -s 7 -d -1 -p AODV -e 44 -c 2 -a 0 -i 0 -k RTR 
- -t 2.013034256 -s 7 -d -1 -p AODV -e 44 -c 2 -a 0 -i 0 -k RTR
h -t 2.013034256 -s 7 -d -1 -p AODV -e 44 -c 2 -a 0 -i 0 -k RTR
r -t 2.014050506 -s 12 -d -1 -p AODV -e 44 -c 2 -a 0 -i 0 -k RTR
+ -t 2.040494288 -s 5 -d -1 -p AODV -e 44 -c 2 -a 0 -i 0 -k RTR 
- -t 2.040494288 -s 5 -d -1 -p AODV -e 44 -c 2 -a 0 -i 0 -k RTR
h -t 2.040494288 -s 5 -d -1 -p AODV -e 44 -c 2 -a 0 -i 0 -k RTR
r -t 2.041490617 -s 6 -d -1 -p AODV -e 44 -c 2 -a 0 -i 0 -k RTR
+ -t 2.052569657 -s 12 -d -1 -p AODV -e 44 -c 2 -a 0 -i 0 -k RTR 
- -t 2.052569657 -s 12 -d -1 -p AODV -e 44 -c 2 -a 0 -i 0 -k RTR
h -t 2.052569657 -s 12 -d -1 -p AODV -e 44 -c 2 -a 0 -i 0 -k RTR
r -t 2.053525903 -s 7 -d -1 -p AODV -e 44 -c 2 -a 0 -i 0 -k RTR
+ -t 2.070942587 -s 0 -d -1 -p AODV -e 44 -c 2 -a 0 -i 0 -k RTR 
- -t 2.070942587 -s 0 -d -1 -p AODV -e 44 -c 2 -a 0 -i 0 -k RTR
h -t 2.070942587 -s 0 -d -1 -p AODV -e 44 -c 2 -a 0 -i 0 -k RTR
+ -t 2.109144734 -s 4 -d -1 -p AODV -e 44 -c 2 -a 0 -i 0 -k RTR 
- -t 2.109144734 -s 4 -d -1 -p AODV -e 44 -c 2 -a 0 -i 0 -k RTR
h -t 2.109144734 -s 4 -d -1 -p AODV -e 44 -c 2 -a 0 -i 0 -k RTR
+ -t 2.160618865 -s 14 -d -1 -p AODV -e 44 -c 2 -a 0 -i 0 -k RTR 
- -t 2.160618865 -s 14 -d -1 -p AODV -e 44 -c 2 -a 0 -i 0 -k RTR
h -t 2.160618865 -s 14 -d -1 -p AODV -e 44 -c 2 -a 0 -i 0 -k RTR
+ -t 2.178683443 -s 6 -d -1 -p AODV -e 44 -c 2 -a 0 -i 0 -k RTR 
- -t 2.178683443 -s 6 -d -1 -p AODV -e 44 -c 2 -a 0 -i 0 -k RTR
h -t 2.178683443 -s 6 -d -1 -p AODV -e 44 -c 2 -a 0 -i 0 -k RTR
r -t 2.179599774 -s 5 -d -1 -p AODV -e 44 -c 2 -a 0 -i 0 -k RTR
+ -t 2.249401682 -s 20 -d -1 -p AODV -e 44 -c 2 -a 0 -i 0 -k RTR 
- -t 2.249401682 -s 20 -d -1 -p AODV -e 44 -c 2 -a 0 -i 0 -k RTR
h -t 2.249401682 -s 20 -d -1 -p AODV -e 44 -c 2 -a 0 -i 0 -k RTR
+ -t 2.258872819 -s 19 -d -1 -p AODV -e 44 -c 2 -a 0 -i 0 -k RTR 
- -t 2.258872819 -s 19 -d -1 -p AODV -e 44 -c 2 -a 0 -i 0 -k RTR
h -t 2.258872819 -s 19 -d -1 -p AODV -e 44 -c 2 -a 0 -i 0 -k RTR
+ -t 2.290361107 -s 3 -d -1 -p AODV -e 44 -c 2 -a 0 -i 0 -k RTR 
- -t 2.290361107 -s 3 -d -1 -p AODV -e 44 -c 2 -a 0 -i 0 -k RTR
h -t 2.290361107 -s 3 -d -1 -p AODV -e 44 -c 2 -a 0 -i 0 -k RTR
+ -t 2.296168646 -s 9 -d -1 -p AODV -e 44 -c 2 -a 0 -i 0 -k RTR 
- -t 2.296168646 -s 9 -d -1 -p AODV -e 44 -c 2 -a 0 -i 0 -k RTR
h -t 2.296168646 -s 9 -d -1 -p AODV -e 44 -c 2 -a 0 -i 0 -k RTR
+ -t 2.317743719 -s 13 -d -1 -p AODV -e 44 -c 2 -a 0 -i 0 -k RTR 
- -t 2.317743719 -s 13 -d -1 -p AODV -e 44 -c 2 -a 0 -i 0 -k RTR
h -t 2.317743719 -s 13 -d -1 -p AODV -e 44 -c 2 -a 0 -i 0 -k RTR
+ -t 2.400000000 -s 19 -d -1 -p cbr -e 1000 -c 2 -a 0 -i 0 -k AGT 
- -t 2.400000000 -s 19 -d -1 -p cbr -e 1000 -c 2 -a 0 -i 0 -k AGT
h -t 2.400000000 -s 19 -d -1 -p cbr -e 1000 -c 2 -a 0 -i 0 -k AGT
+ -t 2.400000000 -s 19 -d -1 -p AODV -e 48 -c 2 -a 0 -i 0 -k RTR 
- -t 2.400000000 -s 19 -d -1 -p AODV -e 48 -c 2 -a 0 -i 0 -k RTR
h -t 2.400000000 -s 19 -d -1 -p AODV -e 48 -c 2 -a 0 -i 0 -k RTR
+ -t 2.417857143 -s 19 -d -1 -p cbr -e 1000 -c 2 -a 0 -i 1 -k AGT 
- -t 2.417857143 -s 19 -d -1 -p cbr -e 1000 -c 2 -a 0 -i 1 -k AGT
h -t 2.417857143 -s 19 -d -1 -p cbr -e 1000 -c 2 -a 0 -i 1 -k AGT
+ -t 2.435714286 -s 19 -d -1 -p cbr -e 1000 -c 2 -a 0 -i 2 -k AGT 
- -t 2.435714286 -s 19 -d -1 -p cbr -e 1000 -c 2 -a 0 -i 2 -k AGT
h -t 2.435714286 -s 19 -d -1 -p cbr -e 1000 -c 2 -a 0 -i 2 -k AGT
+ -t 2.453571429 -s 19 -d -1 -p cbr -e 1000 -c 2 -a 0 -i 3 -k AGT 
- -t 2.453571429 -s 19 -d -1 -p cbr -e 1000 -c 2 -a 0 -i 3 -k AGT
h -t 2.453571429 -s 19 -d -1 -p cbr -e 1000 -c 2 -a 0 -i 3 -k AGT
+ -t 2.471428571 -s 19 -d -1 -p cbr -e 1000 -c 2 -a 0 -i 4 -k AGT 
- -t 2.471428571 -s 19 -d -1 -p cbr -e 1000 -c 2 -a 0 -i 4 -k AGT
h -t 2.471428571 -s 19 -d -1 -p cbr -e 1000 -c 2 -a 0 -i 4 -k AGT
+ -t 2.489285714 -s 19 -d -1 -p cbr -e 1000 -c 2 -a 0 -i 5 -k AGT 
- -t 2.489285714 -s 19 -d -1 -p cbr -e 1000 -c 2 -a 0 -i 5 -k AGT
h -t 2.489285714 -s 19 -d -1 -p cbr -e 1000 -c 2 -a 0 -i 5 -k AGT
+ -t 2.507142857 -s 19 -d -1 -p cbr -e 1000 -c 2 -a 0 -i 6 -k AGT 
- -t 2.507142857 -s 19 -d -1 -p cbr -e 1000 -c 2 -a 0 -i 6 -k AGT
h -t 2.507142857 -s 19 -d -1 -p cbr -e 1000 -c 2 -a 0 -i 6 -k AGT
+ -t 2.525000000 -s 19 -d -1 -p cbr -e 1000 -c 2 -a 0 -i 7 -k AGT 
- -t 2.525000000 -s 19 -d -1 -p cbr -e 1000 -c 2 -a 0 -i 7 -k AGT
h -t 2.525000000 -s 19 -d -1 -p cbr -e 1000 -c 2 -a 0 -i 7 -k AGT
+ -t 2.542857143 -s 19 -d -1 -p cbr -e 1000 -c 2 -a 0 -i 8 -k AGT 
- -t 2.542857143 -s 19 -d -1 -p cbr -e 1000 -c 2 -a 0 -i 8 -k AGT
h -t 2.542857143 -s 19 -d -1 -p cbr -e 1000 -c 2 -a 0 -i 8 -k AGT
+ -t 2.560714286 -s 19 -d -1 -p cbr -e 1000 -c 2 -a 0 -i 9 -k AGT 
- -t 2.560714286 -s 19 -d -1 -p cbr -e 1000 -c 2 -a 0 -i 9 -k AGT
h -t 2.560714286 -s 19 -d -1 -p cbr -e 1000 -c 2 -a 0 -i 9 -k AGT
+ -t 2.571336016 -s 11 -d -1 -p AODV -e 44 -c 2 -a 0 -i 0 -k RTR 
- -t 2.571336016 -s 11 -d -1 -p AODV -e 44 -c 2 -a 0 -i 0 -k RTR
h -t 2.571336016 -s 11 -d -1 -p AODV -e 44 -c 2 -a 0 -i 0 -k RTR
+ -t 2.578571429 -s 19 -d -1 -p cbr -e 1000 -c 2 -a 0 -i 10 -k AGT 
- -t 2.578571429 -s 19 -d -1 -p cbr -e 1000 -c 2 -a 0 -i 10 -k AGT
h -t 2.578571429 -s 19 -d -1 -p cbr -e 1000 -c 2 -a 0 -i 10 -k AGT
+ -t 2.596428571 -s 19 -d -1 -p cbr -e 1000 -c 2 -a 0 -i 11 -k AGT 
- -t 2.596428571 -s 19 -d -1 -p cbr -e 1000 -c 2 -a 0 -i 11 -k AGT
h -t 2.596428571 -s 19 -d -1 -p cbr -e 1000 -c 2 -a 0 -i 11 -k AGT
+ -t 2.614285714 -s 19 -d -1 -p cbr -e 1000 -c 2 -a 0 -i 12 -k AGT 
- -t 2.614285714 -s 19 -d -1 -p cbr -e 1000 -c 2 -a 0 -i 12 -k AGT
h -t 2.614285714 -s 19 -d -1 -p cbr -e 1000 -c 2 -a 0 -i 12 -k AGT
+ -t 2.632142857 -s 19 -d -1 -p cbr -e 1000 -c 2 -a 0 -i 13 -k AGT 
- -t 2.632142857 -s 19 -d -1 -p cbr -e 1000 -c 2 -a 0 -i 13 -k AGT
h -t 2.632142857 -s 19 -d -1 -p cbr -e 1000 -c 2 -a 0 -i 13 -k AGT
+ -t 2.650000000 -s 19 -d -1 -p cbr -e 1000 -c 2 -a 0 -i 14 -k AGT 
- -t 2.650000000 -s 19 -d -1 -p cbr -e 1000 -c 2 -a 0 -i 14 -k AGT
h -t 2.650000000 -s 19 -d -1 -p cbr -e 1000 -c 2 -a 0 -i 14 -k AGT
+ -t 2.666689576 -s 15 -d -1 -p AODV -e 44 -c 2 -a 0 -i 0 -k RTR 
- -t 2.666689576 -s 15 -d -1 -p AODV -e 44 -c 2 -a 0 -i 0 -k RTR
h -t 2.666689576 -s 15 -d -1 -p AODV -e 44 -c 2 -a 0 -i 0 -k RTR
r -t 2.667825695 -s 16 -d -1 -p AODV -e 44 -c 2 -a 0 -i 0 -k RTR
+ -t 2.667857143 -s 19 -d -1 -p cbr -e 1000 -c 2 -a 0 -i 15 -k AGT 
- -t 2.667857143 -s 19 -d -1 -p cbr -e 1000 -c 2 -a 0 -i 15 -k AGT
h -t 2.667857143 -s 19 -d -1 -p cbr -e 1000 -c 2 -a 0 -i 15 -k AGT
+ -t 2.685714286 -s 19 -d -1 -p cbr -e 1000 -c 2 -a 0 -i 16 -k AGT 
- -t 2.685714286 -s 19 -d -1 -p cbr -e 1000 -c 2 -a 0 -i 16 -k AGT
h -t 2.685714286 -s 19 -d -1 -p cbr -e 1000 -c 2 -a 0 -i 16 -k AGT
+ -t 2.703571429 -s 19 -d -1 -p cbr -e 1000 -c 2 -a 0 -i 17 -k AGT 
- -t 2.703571429 -s 19 -d -1 -p cbr -e 1000 -c 2 -a 0 -i 17 -k AGT
h -t 2.703571429 -s 19 -d -1 -p cbr -e 1000 -c 2 -a 0 -i 17 -k AGT
+ -t 2.721428571 -s 19 -d -1 -p cbr -e 1000 -c 2 -a 0 -i 18 -k AGT 
- -t 2.721428571 -s 19 -d -1 -p cbr -e 1000 -c 2 -a 0 -i 18 -k AGT
h -t 2.721428571 -s 19 -d -1 -p cbr -e 1000 -c 2 -a 0 -i 18 -k AGT
+ -t 2.725428697 -s 16 -d -1 -p AODV -e 44 -c 2 -a 0 -i 0 -k RTR 
- -t 2.725428697 -s 16 -d -1 -p AODV -e 44 -c 2 -a 0 -i 0 -k RTR
h -t 2.725428697 -s 16 -d -1 -p AODV -e 44 -c 2 -a 0 -i 0 -k RTR
r -t 2.726544811 -s 15 -d -1 -p AODV -e 44 -c 2 -a 0 -i 0 -k RTR
+ -t 2.733883429 -s 10 -d -1 -p AODV -e 44 -c 2 -a 0 -i 0 -k RTR 
- -t 2.733883429 -s 10 -d -1 -p AODV -e 44 -c 2 -a 0 -i 0 -k RTR
h -t 2.733883429 -s 10 -d -1 -p AODV -e 44 -c 2 -a 0 -i 0 -k RTR
+ -t 2.739285714 -s 19 -d -1 -p cbr -e 1000 -c 2 -a 0 -i 19 -k AGT 
- -t 2.739285714 -s 19 -d -1 -p cbr -e 1000 -c 2 -a 0 -i 19 -k AGT
h -t 2.739285714 -s 19 -d -1 -p cbr -e 1000 -c 2 -a 0 -i 19 -k AGT
+ -t 2.757142857 -s 19 -d -1 -p cbr -e 1000 -c 2 -a 0 -i 20 -k AGT 
- -t 2.757142857 -s 19 -d -1 -p cbr -e 1000 -c 2 -a 0 -i 20 -k AGT
h -t 2.757142857 -s 19 -d -1 -p cbr -e 1000 -c 2 -a 0 -i 20 -k AGT
+ -t 2.757293308 -s 18 -d -1 -p AODV -e 44 -c 2 -a 0 -i 0 -k RTR 
- -t 2.757293308 -s 18 -d -1 -p AODV -e 44 -c 2 -a 0 -i 0 -k RTR
h -t 2.757293308 -s 18 -d -1 -p AODV -e 44 -c 2 -a 0 -i 0 -k RTR
+ -t 2.775000000 -s 19 -d -1 -p cbr -e 1000 -c 2 -a 0 -i 21 -k AGT 
- -t 2.775000000 -s 19 -d -1 -p cbr -e 1000 -c 2 -a 0 -i 21 -k AGT
h -t 2.775000000 -s 19 -d -1 -p cbr -e 1000 -c 2 -a 0 -i 21 -k AGT
+ -t 2.792042524 -s 8 -d -1 -p AODV -e 44 -c 2 -a 0 -i 0 -k RTR 
- -t 2.792042524 -s 8 -d -1 -p AODV -e 44 -c 2 -a 0 -i 0 -k RTR
h -t 2.792042524 -s 8 -d -1 -p AODV -e 44 -c 2 -a 0 -i 0 -k RTR
+ -t 2.792857143 -s 19 -d -1 -p cbr -e 1000 -c 2 -a 0 -i 22 -k AGT 
- -t 2.792857143 -s 19 -d -1 -p cbr -e 1000 -c 2 -a 0 -i 22 -k AGT
h -t 2.792857143 -s 19 -d -1 -p cbr -e 1000 -c 2 -a 0 -i 22 -k AGT
+ -t 2.810714286 -s 19 -d -1 -p cbr -e 1000 -c 2 -a 0 -i 23 -k AGT 
- -t 2.810714286 -s 19 -d -1 -p cbr -e 1000 -c 2 -a 0 -i 23 -k AGT
h -t 2.810714286 -s 19 -d -1 -p cbr -e 1000 -c 2 -a 0 -i 23 -k AGT
+ -t 2.828571429 -s 19 -d -1 -p cbr -e 1000 -c 2 -a 0 -i 24 -k AGT 
- -t 2.828571429 -s 19 -d -1 -p cbr -e 1000 -c 2 -a 0 -i 24 -k AGT
h -t 2.828571429 -s 19 -d -1 -p cbr -e 1000 -c 2 -a 0 -i 24 -k AGT
+ -t 2.846428571 -s 19 -d -1 -p cbr -e 1000 -c 2 -a 0 -i 25 -k AGT 
- -t 2.846428571 -s 19 -d -1 -p cbr -e 1000 -c 2 -a 0 -i 25 -k AGT
h -t 2.846428571 -s 19 -d -1 -p cbr -e 1000 -c 2 -a 0 -i 25 -k AGT
+ -t 2.864285714 -s 19 -d -1 -p cbr -e 1000 -c 2 -a 0 -i 26 -k AGT 
- -t 2.864285714 -s 19 -d -1 -p cbr -e 1000 -c 2 -a 0 -i 26 -k AGT
h -t 2.864285714 -s 19 -d -1 -p cbr -e 1000 -c 2 -a 0 -i 26 -k AGT
+ -t 2.882142857 -s 19 -d -1 -p cbr -e 1000 -c 2 -a 0 -i 27 -k AGT 
- -t 2.882142857 -s 19 -d -1 -p cbr -e 1000 -c 2 -a 0 -i 27 -k AGT
h -t 2.882142857 -s 19 -d -1 -p cbr -e 1000 -c 2 -a 0 -i 27 -k AGT
+ -t 2.900000000 -s 19 -d -1 -p cbr -e 1000 -c 2 -a 0 -i 28 -k AGT 
- -t 2.900000000 -s 19 -d -1 -p cbr -e 1000 -c 2 -a 0 -i 28 -k AGT
h -t 2.900000000 -s 19 -d -1 -p cbr -e 1000 -c 2 -a 0 -i 28 -k AGT
+ -t 2.916934626 -s 7 -d -1 -p AODV -e 44 -c 2 -a 0 -i 0 -k RTR 
- -t 2.916934626 -s 7 -d -1 -p AODV -e 44 -c 2 -a 0 -i 0 -k RTR
h -t 2.916934626 -s 7 -d -1 -p AODV -e 44 -c 2 -a 0 -i 0 -k RTR
+ -t 2.917857143 -s 19 -d -1 -p cbr -e 1000 -c 2 -a 0 -i 29 -k AGT 
- -t 2.917857143 -s 19 -d -1 -p cbr -e 1000 -c 2 -a 0 -i 29 -k AGT
h -t 2.917857143 -s 19 -d -1 -p cbr -e 1000 -c 2 -a 0 -i 29 -k AGT
r -t 2.918050809 -s 12 -d -1 -p AODV -e 44 -c 2 -a 0 -i 0 -k RTR
+ -t 2.935714286 -s 19 -d -1 -p cbr -e 1000 -c 2 -a 0 -i 30 -k AGT 
- -t 2.935714286 -s 19 -d -1 -p cbr -e 1000 -c 2 -a 0 -i 30 -k AGT
h -t 2.935714286 -s 19 -d -1 -p cbr -e 1000 -c 2 -a 0 -i 30 -k AGT
+ -t 2.953571429 -s 19 -d -1 -p cbr -e 1000 -c 2 -a 0 -i 31 -k AGT 
- -t 2.953571429 -s 19 -d -1 -p cbr -e 1000 -c 2 -a 0 -i 31 -k AGT
h -t 2.953571429 -s 19 -d -1 -p cbr -e 1000 -c 2 -a 0 -i 31 -k AGT
+ -t 2.971428571 -s 19 -d -1 -p cbr -e 1000 -c 2 -a 0 -i 32 -k AGT 
- -t 2.971428571 -s 19 -d -1 -p cbr -e 1000 -c 2 -a 0 -i 32 -k AGT
h -t 2.971428571 -s 19 -d -1 -p cbr -e 1000 -c 2 -a 0 -i 32 -k AGT
+ -t 2.983869695 -s 17 -d -1 -p AODV -e 44 -c 2 -a 0 -i 0 -k RTR 
- -t 2.983869695 -s 17 -d -1 -p AODV -e 44 -c 2 -a 0 -i 0 -k RTR
h -t 2.983869695 -s 17 -d -1 -p AODV -e 44 -c 2 -a 0 -i 0 -k RTR
+ -t 2.989285714 -s 19 -d -1 -p cbr -e 1000 -c 2 -a 0 -i 33 -k AGT 
- -t 2.989285714 -s 19 -d -1 -p cbr -e 1000 -c 2 -a 0 -i 33 -k AGT
h -t 2.989285714 -s 19 -d -1 -p cbr -e 1000 -c 2 -a 0 -i 33 -k AGT
+ -t 3.007142857 -s 19 -d -1 -p cbr -e 1000 -c 2 -a 0 -i 34 -k AGT 
- -t 3.007142857 -s 19 -d -1 -p cbr -e 1000 -c 2 -a 0 -i 34 -k AGT
h -t 3.007142857 -s 19 -d -1 -p cbr -e 1000 -c 2 -a 0 -i 34 -k AGT
+ -t 3.020608407 -s 1 -d -1 -p AODV -e 44 -c 2 -a 0 -i 0 -k RTR 
- -t 3.020608407 -s 1 -d -1 -p AODV -e 44 -c 2 -a 0 -i 0 -k RTR
h -t 3.020608407 -s 1 -d -1 -p AODV -e 44 -c 2 -a 0 -i 0 -k RTR
+ -t 3.025000000 -s 19 -d -1 -p cbr -e 1000 -c 2 -a 0 -i 35 -k AGT 
- -t 3.025000000 -s 19 -d -1 -p cbr -e 1000 -c 2 -a 0 -i 35 -k AGT
h -t 3.025000000 -s 19 -d -1 -p cbr -e 1000 -c 2 -a 0 -i 35 -k AGT
+ -t 3.042857143 -s 19 -d -1 -p cbr -e 1000 -c 2 -a 0 -i 36 -k AGT 
- -t 3.042857143 -s 19 -d -1 -p cbr -e 1000 -c 2 -a 0 -i 36 -k AGT
h -t 3.042857143 -s 19 -d -1 -p cbr -e 1000 -c 2 -a 0 -i 36 -k AGT
+ -t 3.051248981 -s 6 -d -1 -p AODV -e 44 -c 2 -a 0 -i 0 -k RTR 
- -t 3.051248981 -s 6 -d -1 -p AODV -e 44 -c 2 -a 0 -i 0 -k RTR
h -t 3.051248981 -s 6 -d -1 -p AODV -e 44 -c 2 -a 0 -i 0 -k RTR
+ -t 3.060714286 -s 19 -d -1 -p cbr -e 1000 -c 2 -a 0 -i 37 -k AGT 
- -t 3.060714286 -s 19 -d -1 -p cbr -e 1000 -c 2 -a 0 -i 37 -k AGT
h -t 3.060714286 -s 19 -d -1 -p cbr -e 1000 -c 2 -a 0 -i 37 -k AGT
+ -t 3.063698106 -s 12 -d -1 -p AODV -e 44 -c 2 -a 0 -i 0 -k RTR 
- -t 3.063698106 -s 12 -d -1 -p AODV -e 44 -c 2 -a 0 -i 0 -k RTR
h -t 3.063698106 -s 12 -d -1 -p AODV -e 44 -c 2 -a 0 -i 0 -k RTR
r -t 3.064914285 -s 7 -d -1 -p AODV -e 44 -c 2 -a 0 -i 0 -k RTR
+ -t 3.078571429 -s 19 -d -1 -p cbr -e 1000 -c 2 -a 0 -i 38 -k AGT 
- -t 3.078571429 -s 19 -d -1 -p cbr -e 1000 -c 2 -a 0 -i 38 -k AGT
h -t 3.078571429 -s 19 -d -1 -p cbr -e 1000 -c 2 -a 0 -i 38 -k AGT
+ -t 3.096428571 -s 19 -d -1 -p cbr -e 1000 -c 2 -a 0 -i 39 -k AGT 
- -t 3.096428571 -s 19 -d -1 -p cbr -e 1000 -c 2 -a 0 -i 39 -k AGT
h -t 3.096428571 -s 19 -d -1 -p cbr -e 1000 -c 2 -a 0 -i 39 -k AGT
+ -t 3.114285714 -s 19 -d -1 -p cbr -e 1000 -c 2 -a 0 -i 40 -k AGT 
- -t 3.114285714 -s 19 -d -1 -p cbr -e 1000 -c 2 -a 0 -i 40 -k AGT
h -t 3.114285714 -s 19 -d -1 -p cbr -e 1000 -c 2 -a 0 -i 40 -k AGT
+ -t 3.132142857 -s 19 -d -1 -p cbr -e 1000 -c 2 -a 0 -i 41 -k AGT 
- -t 3.132142857 -s 19 -d -1 -p cbr -e 1000 -c 2 -a 0 -i 41 -k AGT
h -t 3.132142857 -s 19 -d -1 -p cbr -e 1000 -c 2 -a 0 -i 41 -k AGT
+ -t 3.150000000 -s 19 -d -1 -p cbr -e 1000 -c 2 -a 0 -i 42 -k AGT 
- -t 3.150000000 -s 19 -d -1 -p cbr -e 1000 -c 2 -a 0 -i 42 -k AGT
h -t 3.150000000 -s 19 -d -1 -p cbr -e 1000 -c 2 -a 0 -i 42 -k AGT
+ -t 3.157352974 -s 20 -d -1 -p AODV -e 44 -c 2 -a 0 -i 0 -k RTR 
- -t 3.157352974 -s 20 -d -1 -p AODV -e 44 -c 2 -a 0 -i 0 -k RTR
h -t 3.157352974 -s 20 -d -1 -p AODV -e 44 -c 2 -a 0 -i 0 -k RTR
+ -t 3.161180328 -s 2 -d -1 -p AODV -e 44 -c 2 -a 0 -i 0 -k RTR 
- -t 3.161180328 -s 2 -d -1 -p AODV -e 44 -c 2 -a 0 -i 0 -k RTR
h -t 3.161180328 -s 2 -d -1 -p AODV -e 44 -c 2 -a 0 -i 0 -k RTR
+ -t 3.167857143 -s 19 -d -1 -p cbr -e 1000 -c 2 -a 0 -i 43 -k AGT 
- -t 3.167857143 -s 19 -d -1 -p cbr -e 1000 -c 2 -a 0 -i 43 -k AGT
h -t 3.167857143 -s 19 -d -1 -p cbr -e 1000 -c 2 -a 0 -i 43 -k AGT
+ -t 3.168422990 -s 3 -d -1 -p AODV -e 44 -c 2 -a 0 -i 0 -k RTR 
- -t 3.168422990 -s 3 -d -1 -p AODV -e 44 -c 2 -a 0 -i 0 -k RTR
h -t 3.168422990 -s 3 -d -1 -p AODV -e 44 -c 2 -a 0 -i 0 -k RTR
+ -t 3.185714286 -s 19 -d -1 -p cbr -e 1000 -c 2 -a 0 -i 44 -k AGT 
- -t 3.185714286 -s 19 -d -1 -p cbr -e 1000 -c 2 -a 0 -i 44 -k AGT
h -t 3.185714286 -s 19 -d -1 -p cbr -e 1000 -c 2 -a 0 -i 44 -k AGT
+ -t 3.186122460 -s 4 -d -1 -p AODV -e 44 -c 2 -a 0 -i 0 -k RTR 
- -t 3.186122460 -s 4 -d -1 -p AODV -e 44 -c 2 -a 0 -i 0 -k RTR
h -t 3.186122460 -s 4 -d -1 -p AODV -e 44 -c 2 -a 0 -i 0 -k RTR
+ -t 3.203571429 -s 19 -d -1 -p cbr -e 1000 -c 2 -a 0 -i 45 -k AGT 
- -t 3.203571429 -s 19 -d -1 -p cbr -e 1000 -c 2 -a 0 -i 45 -k AGT
h -t 3.203571429 -s 19 -d -1 -p cbr -e 1000 -c 2 -a 0 -i 45 -k AGT
+ -t 3.220000714 -s 0 -d -1 -p AODV -e 44 -c 2 -a 0 -i 0 -k RTR 
- -t 3.220000714 -s 0 -d -1 -p AODV -e 44 -c 2 -a 0 -i 0 -k RTR
h -t 3.220000714 -s 0 -d -1 -p AODV -e 44 -c 2 -a 0 -i 0 -k RTR
+ -t 3.221428571 -s 19 -d -1 -p cbr -e 1000 -c 2 -a 0 -i 46 -k AGT 
- -t 3.221428571 -s 19 -d -1 -p cbr -e 1000 -c 2 -a 0 -i 46 -k AGT
h -t 3.221428571 -s 19 -d -1 -p cbr -e 1000 -c 2 -a 0 -i 46 -k AGT