v 0 eval {set sim_annotation {MOBILE NODE MOVEMENTS}}
s 0.000000000 _0_ RTR  --- 0 AODV 44 [0 0 0 0] [energy 100.000000 ei 0.000 es 0.000 et 0.000 er 0.000] ------- [0:255 -1:255 1 0] [0x1 1 [0 2] 4.000000] (HELLO)
s 0.000000000 _1_ RTR  --- 0 AODV 44 [0 0 0 0] [energy 100.000000 ei 0.000 es 0.000 et 0.000 er 0.000] ------- [1:255 -1:255 1 0] [0x1 1 [1 2] 4.000000] (HELLO)
s 0.000000000 _2_ RTR  --- 0 AODV 44 [0 0 0 0] [energy 100.000000 ei 0.000 es 0.000 et 0.000 er 0.000] ------- [2:255 -1:255 1 0] [0x1 1 [2 2] 4.000000] (HELLO)
s 0.000000000 _3_ RTR  --- 0 AODV 44 [0 0 0 0] [energy 100.000000 ei 0.000 es 0.000 et 0.000 er 0.000] ------- [3:255 -1:255 1 0] [0x1 1 [3 2] 4.000000] (HELLO)
s 0.000000000 _4_ RTR  --- 0 AODV 44 [0 0 0 0] [energy 100.000000 ei 0.000 es 0.000 et 0.000 er 0.000] ------- [4:255 -1:255 1 0] [0x1 1 [4 2] 4.000000] (HELLO)
s 0.000000000 _5_ RTR  --- 0 AODV 44 [0 0 0 0] [energy 100.000000 ei 0.000 es 0.000 et 0.000 er 0.000] ------- [5:255 -1:255 1 0] [0x1 1 [5 2] 4.000000] (HELLO)
s 0.000000000 _6_ RTR  --- 0 AODV 44 [0 0 0 0] [energy 100.000000 ei 0.000 es 0.000 et 0.000 er 0.000] ------- [6:255 -1:255 1 0] [0x1 1 [6 2] 4.000000] (HELLO)
s 0.000000000 _7_ RTR  --- 0 AODV 44 [0 0 0 0] [energy 100.000000 ei 0.000 es 0.000 et 0.000 er 0.000] ------- [7:255 -1:255 1 0] [0x1 1 [7 2] 4.000000] (HELLO)
s 0.000000000 _8_ RTR  --- 0 AODV 44 [0 0 0 0] [energy 100.000000 ei 0.000 es 0.000 et 0.000 er 0.000] ------- [8:255 -1:255 1 0] [0x1 1 [8 2] 4.000000] (HELLO)
s 0.000000000 _9_ RTR  --- 0 AODV 44 [0 0 0 0] [energy 100.000000 ei 0.000 es 0.000 et 0.000 er 0.000] ------- [9:255 -1:255 1 0] [0x1 1 [9 2] 4.000000] (HELLO)
s 0.000000000 _10_ RTR  --- 0 AODV 44 [0 0 0 0] [energy 100.000000 ei 0.000 es 0.000 et 0.000 er 0.000] ------- [10:255 -1:255 1 0] [0x1 1 [10 2] 4.000000] (HELLO)
s 0.000000000 _11_ RTR  --- 0 AODV 44 [0 0 0 0] [energy 100.000000 ei 0.000 es 0.000 et 0.000 er 0.000] ------- [11:255 -1:255 1 0] [0x1 1 [11 2] 4.000000] (HELLO)
s 0.000000000 _12_ RTR  --- 0 AODV 44 [0 0 0 0] [energy 100.000000 ei 0.000 es 0.000 et 0.000 er 0.000] ------- [12:255 -1:255 1 0] [0x1 1 [12 2] 4.000000] (HELLO)
s 0.000000000 _13_ RTR  --- 0 AODV 44 [0 0 0 0] [energy 100.000000 ei 0.000 es 0.000 et 0.000 er 0.000] ------- [13:255 -1:255 1 0] [0x1 1 [13 2] 4.000000] (HELLO)
s 0.000000000 _14_ RTR  --- 0 AODV 44 [0 0 0 0] [energy 100.000000 ei 0.000 es 0.000 et 0.000 er 0.000] ------- [14:255 -1:255 1 0] [0x1 1 [14 2] 4.000000] (HELLO)
s 0.000000000 _15_ RTR  --- 0 AODV 44 [0 0 0 0] [energy 100.000000 ei 0.000 es 0.000 et 0.000 er 0.000] ------- [15:255 -1:255 1 0] [0x1 1 [15 2] 4.000000] (HELLO)
s 0.000000000 _16_ RTR  --- 0 AODV 44 [0 0 0 0] [energy 100.000000 ei 0.000 es 0.000 et 0.000 er 0.000] ------- [16:255 -1:255 1 0] [0x1 1 [16 2] 4.000000] (HELLO)
s 0.000000000 _17_ RTR  --- 0 AODV 44 [0 0 0 0] [energy 100.000000 ei 0.000 es 0.000 et 0.000 er 0.000] ------- [17:255 -1:255 1 0] [0x1 1 [17 2] 4.000000] (HELLO)
s 0.000000000 _18_ RTR  --- 0 AODV 44 [0 0 0 0] [energy 100.000000 ei 0.000 es 0.000 et 0.000 er 0.000] ------- [18:255 -1:255 1 0] [0x1 1 [18 2] 4.000000] (HELLO)
s 0.000000000 _19_ RTR  --- 0 AODV 44 [0 0 0 0] [energy 100.000000 ei 0.000 es 0.000 et 0.000 er 0.000] ------- [19:255 -1:255 1 0] [0x1 1 [19 2] 4.000000] (HELLO)
s 0.000000000 _20_ RTR  --- 0 AODV 44 [0 0 0 0] [energy 100.000000 ei 0.000 es 0.000 et 0.000 er 0.000] ------- [20:255 -1:255 1 0] [0x1 1 [20 2] 4.000000] (HELLO)
s 0.000000000 _21_ RTR  --- 0 AODV 44 [0 0 0 0] [energy 100.000000 ei 0.000 es 0.000 et 0.000 er 0.000] ------- [21:255 -1:255 1 0] [0x1 1 [21 2] 4.000000] (HELLO)
s 0.000000000 _22_ RTR  --- 0 AODV 44 [0 0 0 0] [energy 100.000000 ei 0.000 es 0.000 et 0.000 er 0.000] ------- [22:255 -1:255 1 0] [0x1 1 [22 2] 4.000000] (HELLO)
s 0.000000000 _23_ RTR  --- 0 AODV 44 [0 0 0 0] [energy 100.000000 ei 0.000 es 0.000 et 0.000 er 0.000] ------- [23:255 -1:255 1 0] [0x1 1 [23 2] 4.000000] (HELLO)
s 0.000000000 _24_ RTR  --- 0 AODV 44 [0 0 0 0] [energy 100.000000 ei 0.000 es 0.000 et 0.000 er 0.000] ------- [24:255 -1:255 1 0] [0x1 1 [24 2] 4.000000] (HELLO)
s 0.000000000 _25_ RTR  --- 0 AODV 44 [0 0 0 0] [energy 100.000000 ei 0.000 es 0.000 et 0.000 er 0.000] ------- [25:255 -1:255 1 0] [0x1 1 [25 2] 4.000000] (HELLO)
s 0.000000000 _26_ RTR  --- 0 AODV 44 [0 0 0 0] [energy 100.000000 ei 0.000 es 0.000 et 0.000 er 0.000] ------- [26:255 -1:255 1 0] [0x1 1 [26 2] 4.000000] (HELLO)
s 0.000000000 _27_ RTR  --- 0 AODV 44 [0 0 0 0] [energy 100.000000 ei 0.000 es 0.000 et 0.000 er 0.000] ------- [27:255 -1:255 1 0] [0x1 1 [27 2] 4.000000] (HELLO)
s 0.000000000 _28_ RTR  --- 0 AODV 44 [0 0 0 0] [energy 100.000000 ei 0.000 es 0.000 et 0.000 er 0.000] ------- [28:255 -1:255 1 0] [0x1 1 [28 2] 4.000000] (HELLO)
s 0.000000000 _29_ RTR  --- 0 AODV 44 [0 0 0 0] [energy 100.000000 ei 0.000 es 0.000 et 0.000 er 0.000] ------- [29:255 -1:255 1 0] [0x1 1 [29 2] 4.000000] (HELLO)
s 0.000000000 _30_ RTR  --- 0 AODV 44 [0 0 0 0] [energy 100.000000 ei 0.000 es 0.000 et 0.000 er 0.000] ------- [30:255 -1:255 1 0] [0x1 1 [30 2] 4.000000] (HELLO)
s 0.000000000 _31_ RTR  --- 0 AODV 44 [0 0 0 0] [energy 100.000000 ei 0.000 es 0.000 et 0.000 er 0.000] ------- [31:255 -1:255 1 0] [0x1 1 [31 2] 4.000000] (HELLO)
s 0.000000000 _32_ RTR  --- 0 AODV 44 [0 0 0 0] [energy 100.000000 ei 0.000 es 0.000 et 0.000 er 0.000] ------- [32:255 -1:255 1 0] [0x1 1 [32 2] 4.000000] (HELLO)
s 0.000000000 _33_ RTR  --- 0 AODV 44 [0 0 0 0] [energy 100.000000 ei 0.000 es 0.000 et 0.000 er 0.000] ------- [33:255 -1:255 1 0] [0x1 1 [33 2] 4.000000] (HELLO)
s 0.000000000 _34_ RTR  --- 0 AODV 44 [0 0 0 0] [energy 100.000000 ei 0.000 es 0.000 et 0.000 er 0.000] ------- [34:255 -1:255 1 0] [0x1 1 [34 2] 4.000000] (HELLO)
s 0.000000000 _35_ RTR  --- 0 AODV 44 [0 0 0 0] [energy 100.000000 ei 0.000 es 0.000 et 0.000 er 0.000] ------- [35:255 -1:255 1 0] [0x1 1 [35 2] 4.000000] (HELLO)
s 0.000000000 _36_ RTR  --- 0 AODV 44 [0 0 0 0] [energy 100.000000 ei 0.000 es 0.000 et 0.000 er 0.000] ------- [36:255 -1:255 1 0] [0x1 1 [36 2] 4.000000] (HELLO)
s 0.000000000 _37_ RTR  --- 0 AODV 44 [0 0 0 0] [energy 100.000000 ei 0.000 es 0.000 et 0.000 er 0.000] ------- [37:255 -1:255 1 0] [0x1 1 [37 2] 4.000000] (HELLO)
s 0.000000000 _38_ RTR  --- 0 AODV 44 [0 0 0 0] [energy 100.000000 ei 0.000 es 0.000 et 0.000 er 0.000] ------- [38:255 -1:255 1 0] [0x1 1 [38 2] 4.000000] (HELLO)
s 0.000000000 _39_ RTR  --- 0 AODV 44 [0 0 0 0] [energy 100.000000 ei 0.000 es 0.000 et 0.000 er 0.000] ------- [39:255 -1:255 1 0] [0x1 1 [39 2] 4.000000] (HELLO)
s 0.000000000 _40_ RTR  --- 0 AODV 44 [0 0 0 0] [energy 100.000000 ei 0.000 es 0.000 et 0.000 er 0.000] ------- [40:255 -1:255 1 0] [0x1 1 [40 2] 4.000000] (HELLO)
s 0.000000000 _41_ RTR  --- 0 AODV 44 [0 0 0 0] [energy 100.000000 ei 0.000 es 0.000 et 0.000 er 0.000] ------- [41:255 -1:255 1 0] [0x1 1 [41 2] 4.000000] (HELLO)
s 0.000000000 _42_ RTR  --- 0 AODV 44 [0 0 0 0] [energy 100.000000 ei 0.000 es 0.000 et 0.000 er 0.000] ------- [42:255 -1:255 1 0] [0x1 1 [42 2] 4.000000] (HELLO)
s 0.000000000 _43_ RTR  --- 0 AODV 44 [0 0 0 0] [energy 100.000000 ei 0.000 es 0.000 et 0.000 er 0.000] ------- [43:255 -1:255 1 0] [0x1 1 [43 2] 4.000000] (HELLO)
s 0.000000000 _44_ RTR  --- 0 AODV 44 [0 0 0 0] [energy 100.000000 ei 0.000 es 0.000 et 0.000 er 0.000] ------- [44:255 -1:255 1 0] [0x1 1 [44 2] 4.000000] (HELLO)
s 0.000000000 _45_ RTR  --- 0 AODV 44 [0 0 0 0] [energy 100.000000 ei 0.000 es 0.000 et 0.000 er 0.000] ------- [45:255 -1:255 1 0] [0x1 1 [45 2] 4.000000] (HELLO)
s 0.000000000 _46_ RTR  --- 0 AODV 44 [0 0 0 0] [energy 100.000000 ei 0.000 es 0.000 et 0.000 er 0.000] ------- [46:255 -1:255 1 0] [0x1 1 [46 2] 4.000000] (HELLO)
s 0.000000000 _47_ RTR  --- 0 AODV 44 [0 0 0 0] [energy 100.000000 ei 0.000 es 0.000 et 0.000 er 0.000] ------- [47:255 -1:255 1 0] [0x1 1 [47 2] 4.000000] (HELLO)
s 0.000000000 _48_ RTR  --- 0 AODV 44 [0 0 0 0] [energy 100.000000 ei 0.000 es 0.000 et 0.000 er 0.000] ------- [48:255 -1:255 1 0] [0x1 1 [48 2] 4.000000] (HELLO)
s 0.000000000 _49_ RTR  --- 0 AODV 44 [0 0 0 0] [energy 100.000000 ei 0.000 es 0.000 et 0.000 er 0.000] ------- [49:255 -1:255 1 0] [0x1 1 [49 2] 4.000000] (HELLO)
s 0.000000000 _50_ RTR  --- 0 AODV 44 [0 0 0 0] [energy 100.000000 ei 0.000 es 0.000 et 0.000 er 0.000] ------- [50:255 -1:255 1 0] [0x1 1 [50 2] 4.000000] (HELLO)
N -t 0.000075 -n 24 -e 99.999971
N -t 0.000075 -n 43 -e 99.999971
N -t 0.000075 -n 38 -e 99.999971
N -t 0.000075 -n 40 -e 99.999971
N -t 0.000115 -n 44 -e 99.999971
N -t 0.000135 -n 31 -e 99.999971
N -t 0.000135 -n 25 -e 99.999971
N -t 0.000135 -n 47 -e 99.999971
N -t 0.000135 -n 26 -e 99.999971
N -t 0.000135 -n 45 -e 99.999971
N -t 0.000155 -n 36 -e 99.999971
N -t 0.000175 -n 7 -e 99.999971
N -t 0.000215 -n 44 -e 99.999968
N -t 0.000215 -n 36 -e 99.999969
N -t 0.000215 -n 37 -e 99.999971
N -t 0.000255 -n 15 -e 99.999971
N -t 0.000275 -n 46 -e 99.999971
N -t 0.000275 -n 30 -e 99.999971
N -t 0.000375 -n 41 -e 99.999971
N -t 0.000395 -n 32 -e 99.999971
N -t 0.000535 -n 50 -e 99.999971
r 0.000916090 _24_ RTR  --- 0 AODV 44 [0 ffffffff 30 800] [energy 99.999971 ei 0.000 es 0.000 et 0.000 er 0.000] ------- [48:255 -1:255 1 0] [0x1 1 [48 2] 4.000000] (HELLO)
r 0.000916238 _43_ RTR  --- 0 AODV 44 [0 ffffffff 30 800] [energy 99.999971 ei 0.000 es 0.000 et 0.000 er 0.000] ------- [48:255 -1:255 1 0] [0x1 1 [48 2] 4.000000] (HELLO)
r 0.000916282 _38_ RTR  --- 0 AODV 44 [0 ffffffff 2a 800] [energy 99.999971 ei 0.000 es 0.000 et 0.000 er 0.000] ------- [42:255 -1:255 1 0] [0x1 1 [42 2] 4.000000] (HELLO)
r 0.000976123 _31_ RTR  --- 0 AODV 44 [0 ffffffff 1b 800] [energy 99.999971 ei 0.000 es 0.000 et 0.000 er 0.000] ------- [27:255 -1:255 1 0] [0x1 1 [27 2] 4.000000] (HELLO)
r 0.000976183 _25_ RTR  --- 0 AODV 44 [0 ffffffff 1b 800] [energy 99.999971 ei 0.000 es 0.000 et 0.000 er 0.000] ------- [27:255 -1:255 1 0] [0x1 1 [27 2] 4.000000] (HELLO)
r 0.000976245 _47_ RTR  --- 0 AODV 44 [0 ffffffff 1b 800] [energy 99.999971 ei 0.000 es 0.000 et 0.000 er 0.000] ------- [27:255 -1:255 1 0] [0x1 1 [27 2] 4.000000] (HELLO)
r 0.000976300 _26_ RTR  --- 0 AODV 44 [0 ffffffff 1b 800] [energy 99.999971 ei 0.000 es 0.000 et 0.000 er 0.000] ------- [27:255 -1:255 1 0] [0x1 1 [27 2] 4.000000] (HELLO)
N -t 0.001042 -n 42 -e 99.999945
N -t 0.001042 -n 45 -e 99.999942
r 0.001056255 _37_ RTR  --- 0 AODV 44 [0 ffffffff 22 800] [energy 99.999971 ei 0.000 es 0.000 et 0.000 er 0.000] ------- [34:255 -1:255 1 0] [0x1 1 [34 2] 4.000000] (HELLO)
r 0.001096294 _15_ RTR  --- 0 AODV 44 [0 ffffffff 10 800] [energy 99.999971 ei 0.000 es 0.000 et 0.000 er 0.000] ------- [16:255 -1:255 1 0] [0x1 1 [16 2] 4.000000] (HELLO)
r 0.001116000 _46_ RTR  --- 0 AODV 44 [0 ffffffff 12 800] [energy 99.999971 ei 0.000 es 0.000 et 0.000 er 0.000] ------- [18:255 -1:255 1 0] [0x1 1 [18 2] 4.000000] (HELLO)
r 0.001116275 _30_ RTR  --- 0 AODV 44 [0 ffffffff 12 800] [energy 99.999971 ei 0.000 es 0.000 et 0.000 er 0.000] ------- [18:255 -1:255 1 0] [0x1 1 [18 2] 4.000000] (HELLO)
N -t 0.001141 -n 27 -e 99.999945
N -t 0.001141 -n 26 -e 99.999942
N -t 0.001141 -n 45 -e 99.999939
N -t 0.001141 -n 25 -e 99.999942
N -t 0.001141 -n 47 -e 99.999942
N -t 0.001181 -n 48 -e 99.999945
N -t 0.001181 -n 43 -e 99.999942
r 0.001216171 _41_ RTR  --- 0 AODV 44 [0 ffffffff 17 800] [energy 99.999971 ei 0.000 es 0.000 et 0.000 er 0.000] ------- [23:255 -1:255 1 0] [0x1 1 [23 2] 4.000000] (HELLO)
r 0.001236245 _32_ RTR  --- 0 AODV 44 [0 ffffffff 27 800] [energy 99.999971 ei 0.000 es 0.000 et 0.000 er 0.000] ------- [39:255 -1:255 1 0] [0x1 1 [39 2] 4.000000] (HELLO)
N -t 0.001281 -n 23 -e 99.999945
N -t 0.001282 -n 45 -e 99.999934
N -t 0.001282 -n 16 -e 99.999945
r 0.001376097 _50_ RTR  --- 0 AODV 44 [0 ffffffff 31 800] [energy 99.999971 ei 0.000 es 0.000 et 0.000 er 0.000] ------- [49:255 -1:255 1 0] [0x1 1 [49 2] 4.000000] (HELLO)
N -t 0.001421 -n 32 -e 99.999942
N -t 0.001422 -n 34 -e 99.999945
N -t 0.001422 -n 46 -e 99.999942
N -t 0.001422 -n 18 -e 99.999945
N -t 0.001422 -n 44 -e 99.999939
N -t 0.001422 -n 25 -e 99.999932
N -t 0.001422 -n 47 -e 99.999932
N -t 0.001541 -n 49 -e 99.999945
N -t 0.001666 -n 12 -e 99.999945
N -t 0.001806 -n 45 -e 99.999915
N -t 0.001806 -n 47 -e 99.999919
N -t 0.001806 -n 42 -e 99.999919
N -t 0.001885 -n 29 -e 99.999945
N -t 0.001885 -n 34 -e 99.999929
N -t 0.001886 -n 44 -e 99.999922
r 0.001982245 _27_ RTR  --- 0 AODV 44 [0 ffffffff 1f 800] [energy 99.999945 ei 0.000 es 0.000 et 0.000 er 0.000] ------- [31:255 -1:255 1 0] [0x1 1 [31 2] 4.000000] (HELLO)
r 0.001982317 _26_ RTR  --- 0 AODV 44 [0 ffffffff 1f 800] [energy 99.999942 ei 0.000 es 0.000 et 0.000 er 0.000] ------- [31:255 -1:255 1 0] [0x1 1 [31 2] 4.000000] (HELLO)
r 0.002022180 _48_ RTR  --- 0 AODV 44 [0 ffffffff 18 800] [energy 99.999945 ei 0.000 es 0.000 et 0.000 er 0.000] ------- [24:255 -1:255 1 0] [0x1 1 [24 2] 4.000000] (HELLO)
r 0.002022269 _43_ RTR  --- 0 AODV 44 [0 ffffffff 18 800] [energy 99.999942 ei 0.000 es 0.000 et 0.000 er 0.000] ------- [24:255 -1:255 1 0] [0x1 1 [24 2] 4.000000] (HELLO)
N -t 0.002088 -n 31 -e 99.999917
N -t 0.002088 -n 27 -e 99.999917
N -t 0.002088 -n 45 -e 99.999905
r 0.002122341 _23_ RTR  --- 0 AODV 44 [0 ffffffff 29 800] [energy 99.999945 ei 0.000 es 0.000 et 0.000 er 0.000] ------- [41:255 -1:255 1 0] [0x1 1 [41 2] 4.000000] (HELLO)
r 0.002122589 _16_ RTR  --- 0 AODV 44 [0 ffffffff f 800] [energy 99.999945 ei 0.000 es 0.000 et 0.000 er 0.000] ------- [15:255 -1:255 1 0] [0x1 1 [15 2] 4.000000] (HELLO)
N -t 0.002127 -n 24 -e 99.999917
N -t 0.002128 -n 48 -e 99.999917
r 0.002262485 _32_ RTR  --- 0 AODV 44 [0 ffffffff 1e 800] [energy 99.999942 ei 0.000 es 0.000 et 0.000 er 0.000] ------- [30:255 -1:255 1 0] [0x1 1 [30 2] 4.000000] (HELLO)
r 0.002262550 _46_ RTR  --- 0 AODV 44 [0 ffffffff 1e 800] [energy 99.999942 ei 0.000 es 0.000 et 0.000 er 0.000] ------- [30:255 -1:255 1 0] [0x1 1 [30 2] 4.000000] (HELLO)
r 0.002262550 _18_ RTR  --- 0 AODV 44 [0 ffffffff 1e 800] [energy 99.999945 ei 0.000 es 0.000 et 0.000 er 0.000] ------- [30:255 -1:255 1 0] [0x1 1 [30 2] 4.000000] (HELLO)
r 0.002382195 _49_ RTR  --- 0 AODV 44 [0 ffffffff 32 800] [energy 99.999945 ei 0.000 es 0.000 et 0.000 er 0.000] ------- [50:255 -1:255 1 0] [0x1 1 [50 2] 4.000000] (HELLO)
N -t 0.002388 -n 18 -e 99.999916
N -t 0.002388 -n 30 -e 99.999916
N -t 0.002388 -n 39 -e 99.999945
N -t 0.002388 -n 47 -e 99.999898
N -t 0.002388 -n 30 -e 99.999916
r 0.002726466 _29_ RTR  --- 0 AODV 44 [0 ffffffff 24 800] [energy 99.999945 ei 0.000 es 0.000 et 0.000 er 0.000] ------- [36:255 -1:255 1 0] [0x1 1 [36 2] 4.000000] (HELLO)
r 0.002928511 _31_ RTR  --- 0 AODV 44 [0 ffffffff 1a 800] [energy 99.999917 ei 0.000 es 0.000 et 0.000 er 0.000] ------- [26:255 -1:255 1 0] [0x1 1 [26 2] 4.000000] (HELLO)
r 0.002928617 _27_ RTR  --- 0 AODV 44 [0 ffffffff 1a 800] [energy 99.999917 ei 0.000 es 0.000 et 0.000 er 0.000] ------- [26:255 -1:255 1 0] [0x1 1 [26 2] 4.000000] (HELLO)
r 0.002968449 _24_ RTR  --- 0 AODV 44 [0 ffffffff 2b 800] [energy 99.999917 ei 0.000 es 0.000 et 0.000 er 0.000] ------- [43:255 -1:255 1 0] [0x1 1 [43 2] 4.000000] (HELLO)
r 0.002968507 _48_ RTR  --- 0 AODV 44 [0 ffffffff 2b 800] [energy 99.999917 ei 0.000 es 0.000 et 0.000 er 0.000] ------- [43:255 -1:255 1 0] [0x1 1 [43 2] 4.000000] (HELLO)
N -t 0.003032 -n 27 -e 99.999888
N -t 0.003032 -n 47 -e 99.999875
N -t 0.003032 -n 31 -e 99.999888
N -t 0.003032 -n 30 -e 99.999894
r 0.003228550 _18_ RTR  --- 0 AODV 44 [0 ffffffff 2e 800] [energy 99.999916 ei 0.000 es 0.000 et 0.000 er 0.000] ------- [46:255 -1:255 1 0] [0x1 1 [46 2] 4.000000] (HELLO)
r 0.003228730 _39_ RTR  --- 0 AODV 44 [0 ffffffff 20 800] [energy 99.999945 ei 0.000 es 0.000 et 0.000 er 0.000] ------- [32:255 -1:255 1 0] [0x1 1 [32 2] 4.000000] (HELLO)
N -t 0.003436 -n 34 -e 99.999900
N -t 0.003436 -n 33 -e 99.999944
N -t 0.003436 -n 36 -e 99.999914
N -t 0.003436 -n 37 -e 99.999916
N -t 0.003658 -n 31 -e 99.999866
N -t 0.003658 -n 40 -e 99.999915
N -t 0.003658 -n 38 -e 99.999915
N -t 0.003658 -n 41 -e 99.999915
N -t 0.003658 -n 26 -e 99.999887
N -t 0.003658 -n 27 -e 99.999866
r 0.004276725 _34_ RTR  --- 0 AODV 44 [0 ffffffff 2c 800] [energy 99.999900 ei 0.000 es 0.000 et 0.000 er 0.000] ------- [44:255 -1:255 1 0] [0x1 1 [44 2] 4.000000] (HELLO)
r 0.004276815 _33_ RTR  --- 0 AODV 44 [0 ffffffff 2c 800] [energy 99.999944 ei 0.000 es 0.000 et 0.000 er 0.000] ------- [44:255 -1:255 1 0] [0x1 1 [44 2] 4.000000] (HELLO)
r 0.004276835 _36_ RTR  --- 0 AODV 44 [0 ffffffff 2c 800] [energy 99.999914 ei 0.000 es 0.000 et 0.000 er 0.000] ------- [44:255 -1:255 1 0] [0x1 1 [44 2] 4.000000] (HELLO)
N -t 0.004422 -n 25 -e 99.999877
N -t 0.004422 -n 27 -e 99.999839
N -t 0.004422 -n 31 -e 99.999839
N -t 0.004422 -n 32 -e 99.999887
N -t 0.004422 -n 30 -e 99.999864
N -t 0.004422 -n 40 -e 99.999888
r 0.005262994 _25_ RTR  --- 0 AODV 44 [0 ffffffff 2f 800] [energy 99.999877 ei 0.000 es 0.000 et 0.000 er 0.000] ------- [47:255 -1:255 1 0] [0x1 1 [47 2] 4.000000] (HELLO)
r 0.005263125 _32_ RTR  --- 0 AODV 44 [0 ffffffff 2f 800] [energy 99.999887 ei 0.000 es 0.000 et 0.000 er 0.000] ------- [47:255 -1:255 1 0] [0x1 1 [47 2] 4.000000] (HELLO)
r 0.005263129 _30_ RTR  --- 0 AODV 44 [0 ffffffff 2f 800] [energy 99.999864 ei 0.000 es 0.000 et 0.000 er 0.000] ------- [47:255 -1:255 1 0] [0x1 1 [47 2] 4.000000] (HELLO)
M 0.20000 2 (201.00, 552.00, 0.00), (309.00, 211.00), 20.00
M 0.20000 18 (741.00, 152.00, 0.00), (159.00, 722.00), 20.00
M 0.20000 23 (1051.00, 452.00, 0.00), (880.00, 211.00), 20.00
M 0.20000 39 (941.00, 152.00, 0.00), (159.00, 722.00), 20.00
M 0.20000 49 (1082.00, 64.00, 0.00), (1020.00, 722.00), 20.00
M 0.25000 11 (569.00, 167.00, 0.00), (551.00, 624.00), 25.00
M 0.25000 32 (869.00, 167.00, 0.00), (551.00, 624.00), 25.00
M 0.25000 42 (1082.00, 264.00, 0.00), (551.00, 624.00), 25.00
M 0.50000 10 (519.00, 361.00, 0.00), (598.00, 728.00), 25.00
M 0.50000 31 (889.00, 361.00, 0.00), (598.00, 728.00), 25.00
M 0.75000 0 (36.00, 529.00, 0.00), (379.00, 349.00), 20.00
M 0.75000 1 (143.00, 666.00, 0.00), (556.00, 302.00), 20.00
M 0.75000 4 (230.00, 291.00, 0.00), (139.00, 63.00), 20.00
M 0.75000 5 (295.00, 419.00, 0.00), (320.00, 27.00), 20.00
M 0.75000 16 (630.00, 626.00, 0.00), (741.00, 809.00), 20.00
M 0.75000 17 (666.00, 347.00, 0.00), (437.00, 799.00), 20.00
M 0.75000 20 (761.00, 441.00, 0.00), (839.00, 444.00), 20.00
M 0.75000 21 (1236.00, 529.00, 0.00), (1000.00, 349.00), 20.00
M 0.75000 22 (797.00, 647.00, 0.00), (920.00, 302.00), 20.00
M 0.75000 25 (830.00, 291.00, 0.00), (850.00, 63.00), 20.00
M 0.75000 26 (895.00, 419.00, 0.00), (320.00, 27.00), 20.00
M 0.75000 37 (1030.00, 626.00, 0.00), (741.00, 809.00), 20.00
M 0.75000 38 (1066.00, 347.00, 0.00), (437.00, 799.00), 20.00
M 0.75000 41 (1001.00, 441.00, 0.00), (100.00, 44.00), 20.00
M 0.75000 47 (882.00, 264.00, 0.00), (741.00, 809.00), 20.00
M 0.75000 48 (21.00, 100.00, 0.00), (437.00, 799.00), 20.00
s 0.761910812 _42_ RTR  --- 0 AODV 44 [0 0 0 0] [energy 99.999919 ei 0.000 es 0.000 et 0.000 er 0.000] ------- [42:255 -1:255 1 0] [0x1 1 [42 2] 4.000000] (HELLO)
N -t 0.762346 -n 38 -e 99.999347
N -t 0.762346 -n 40 -e 99.999321
r 0.763187066 _38_ RTR  --- 0 AODV 44 [0 ffffffff 2a 800] [energy 99.999347 ei 0.001 es 0.000 et 0.000 er 0.000] ------- [42:255 -1:255 1 0] [0x1 1 [42 2] 4.000000] (HELLO)
r 0.763187111 _40_ RTR  --- 0 AODV 44 [0 ffffffff 2a 800] [energy 99.999321 ei 0.001 es 0.000 et 0.000 er 0.000] ------- [42:255 -1:255 1 0] [0x1 1 [42 2] 4.000000] (HELLO)
s 0.769049809 _31_ RTR  --- 0 AODV 44 [0 0 0 0] [energy 99.999839 ei 0.000 es 0.000 et 0.000 er 0.000] ------- [31:255 -1:255 1 0] [0x1 1 [31 6] 4.000000] (HELLO)
N -t 0.769185 -n 27 -e 99.999266
N -t 0.769185 -n 26 -e 99.999314
N -t 0.769185 -n 45 -e 99.999306
N -t 0.769185 -n 25 -e 99.999304
N -t 0.769185 -n 47 -e 99.999277
s 0.769301427 _49_ RTR  --- 0 AODV 44 [0 0 0 0] [energy 99.999945 ei 0.000 es 0.000 et 0.000 er 0.000] ------- [49:255 -1:255 1 0] [0x1 1 [49 4] 4.000000] (HELLO)
N -t 0.769477 -n 50 -e 99.999370
r 0.770025936 _27_ RTR  --- 0 AODV 44 [0 ffffffff 1f 800] [energy 99.999266 ei 0.001 es 0.000 et 0.000 er 0.000] ------- [31:255 -1:255 1 0] [0x1 1 [31 6] 4.000000] (HELLO)
r 0.770025987 _26_ RTR  --- 0 AODV 44 [0 ffffffff 1f 800] [energy 99.999314 ei 0.001 es 0.000 et 0.000 er 0.000] ------- [31:255 -1:255 1 0] [0x1 1 [31 6] 4.000000] (HELLO)
r 0.770026087 _45_ RTR  --- 0 AODV 44 [0 ffffffff 1f 800] [energy 99.999306 ei 0.001 es 0.000 et 0.000 er 0.000] ------- [31:255 -1:255 1 0] [0x1 1 [31 6] 4.000000] (HELLO)
r 0.770026120 _25_ RTR  --- 0 AODV 44 [0 ffffffff 1f 800] [energy 99.999304 ei 0.001 es 0.000 et 0.000 er 0.000] ------- [31:255 -1:255 1 0] [0x1 1 [31 6] 4.000000] (HELLO)
r 0.770317558 _50_ RTR  --- 0 AODV 44 [0 ffffffff 31 800] [energy 99.999370 ei 0.001 es 0.000 et 0.000 er 0.000] ------- [49:255 -1:255 1 0] [0x1 1 [49 4] 4.000000] (HELLO)
s 0.776887043 _8_ RTR  --- 0 AODV 44 [0 0 0 0] [energy 99.999974 ei 0.000 es 0.000 et 0.000 er 0.000] ------- [8:255 -1:255 1 0] [0x1 1 [8 2] 4.000000] (HELLO)
s 0.791606767 _50_ RTR  --- 0 AODV 44 [0 0 0 0] [energy 99.999370 ei 0.001 es 0.000 et 0.000 er 0.000] ------- [50:255 -1:255 1 0] [0x1 1 [50 4] 4.000000] (HELLO)
N -t 0.791862 -n 49 -e 99.999329
r 0.792702900 _49_ RTR  --- 0 AODV 44 [0 ffffffff 32 800] [energy 99.999329 ei 0.001 es 0.000 et 0.000 er 0.000] ------- [50:255 -1:255 1 0] [0x1 1 [50 4] 4.000000] (HELLO)
s 0.793587526 _6_ RTR  --- 0 AODV 44 [0 0 0 0] [energy 99.999974 ei 0.000 es 0.000 et 0.000 er 0.000] ------- [6:255 -1:255 1 0] [0x1 1 [6 2] 4.000000] (HELLO)
s 0.810287819 _5_ RTR  --- 0 AODV 44 [0 0 0 0] [energy 99.999974 ei 0.000 es 0.000 et 0.000 er 0.000] ------- [5:255 -1:255 1 0] [0x1 1 [5 2] 4.000000] (HELLO)
s 0.825965507 _34_ RTR  --- 0 AODV 44 [0 0 0 0] [energy 99.999900 ei 0.000 es 0.000 et 0.000 er 0.000] ------- [34:255 -1:255 1 0] [0x1 1 [34 4] 4.000000] (HELLO)
N -t 0.826121 -n 44 -e 99.999282
N -t 0.826121 -n 36 -e 99.999300
N -t 0.826121 -n 37 -e 99.999302
r 0.826961691 _44_ RTR  --- 0 AODV 44 [0 ffffffff 22 800] [energy 99.999282 ei 0.001 es 0.000 et 0.000 er 0.000] ------- [34:255 -1:255 1 0] [0x1 1 [34 4] 4.000000] (HELLO)
r 0.826961753 _36_ RTR  --- 0 AODV 44 [0 ffffffff 22 800] [energy 99.999300 ei 0.001 es 0.000 et 0.000 er 0.000] ------- [34:255 -1:255 1 0] [0x1 1 [34 4] 4.000000] (HELLO)
r 0.826961757 _37_ RTR  --- 0 AODV 44 [0 ffffffff 22 800] [energy 99.999302 ei 0.001 es 0.000 et 0.000 er 0.000] ------- [34:255 -1:255 1 0] [0x1 1 [34 4] 4.000000] (HELLO)
s 0.829826918 _25_ RTR  --- 0 AODV 44 [0 0 0 0] [energy 99.999304 ei 0.001 es 0.000 et 0.000 er 0.000] ------- [25:255 -1:255 1 0] [0x1 1 [25 8] 4.000000] (HELLO)
N -t 0.830082 -n 27 -e 99.999194
N -t 0.830082 -n 47 -e 99.999205
N -t 0.830082 -n 31 -e 99.999198
N -t 0.830082 -n 30 -e 99.999248
r 0.830923105 _27_ RTR  --- 0 AODV 44 [0 ffffffff 19 800] [energy 99.999194 ei 0.001 es 0.000 et 0.000 er 0.000] ------- [25:255 -1:255 1 0] [0x1 1 [25 8] 4.000000] (HELLO)
r 0.830923107 _47_ RTR  --- 0 AODV 44 [0 ffffffff 19 800] [energy 99.999205 ei 0.001 es 0.000 et 0.000 er 0.000] ------- [25:255 -1:255 1 0] [0x1 1 [25 8] 4.000000] (HELLO)
r 0.830923233 _31_ RTR  --- 0 AODV 44 [0 ffffffff 19 800] [energy 99.999198 ei 0.001 es 0.000 et 0.000 er 0.000] ------- [25:255 -1:255 1 0] [0x1 1 [25 8] 4.000000] (HELLO)
r 0.830923241 _30_ RTR  --- 0 AODV 44 [0 ffffffff 19 800] [energy 99.999248 ei 0.001 es 0.000 et 0.000 er 0.000] ------- [25:255 -1:255 1 0] [0x1 1 [25 8] 4.000000] (HELLO)
s 0.835912560 _33_ RTR  --- 0 AODV 44 [0 0 0 0] [energy 99.999944 ei 0.000 es 0.000 et 0.000 er 0.000] ------- [33:255 -1:255 1 0] [0x1 1 [33 4] 4.000000] (HELLO)
N -t 0.836548 -n 44 -e 99.999246
r 0.837388834 _44_ RTR  --- 0 AODV 44 [0 ffffffff 21 800] [energy 99.999246 ei 0.001 es 0.000 et 0.000 er 0.000] ------- [33:255 -1:255 1 0] [0x1 1 [33 4] 4.000000] (HELLO)
s 0.848050262 _4_ RTR  --- 0 AODV 44 [0 0 0 0] [energy 99.999974 ei 0.000 es 0.000 et 0.000 er 0.000] ------- [4:255 -1:255 1 0] [0x1 1 [4 2] 4.000000] (HELLO)
s 0.852298838 _22_ RTR  --- 0 AODV 44 [0 0 0 0] [energy 99.999974 ei 0.000 es 0.000 et 0.000 er 0.000] ------- [22:255 -1:255 1 0] [0x1 1 [22 2] 4.000000] (HELLO)
s 0.860727489 _41_ RTR  --- 0 AODV 44 [0 0 0 0] [energy 99.999915 ei 0.000 es 0.000 et 0.000 er 0.000] ------- [41:255 -1:255 1 0] [0x1 1 [41 4] 4.000000] (HELLO)
N -t 0.861183 -n 23 -e 99.999305
N -t 0.861183 -n 45 -e 99.999212
r 0.862023637 _23_ RTR  --- 0 AODV 44 [0 ffffffff 29 800] [energy 99.999305 ei 0.001 es 0.000 et 0.000 er 0.000] ------- [41:255 -1:255 1 0] [0x1 1 [41 4] 4.000000] (HELLO)
r 0.862023818 _45_ RTR  --- 0 AODV 44 [0 ffffffff 29 800] [energy 99.999212 ei 0.001 es 0.000 et 0.000 er 0.000] ------- [41:255 -1:255 1 0] [0x1 1 [41 4] 4.000000] (HELLO)
s 0.870562117 _35_ RTR  --- 0 AODV 44 [0 0 0 0] [energy 99.999974 ei 0.000 es 0.000 et 0.000 er 0.000] ------- [35:255 -1:255 1 0] [0x1 1 [35 2] 4.000000] (HELLO)
s 0.874304928 _30_ RTR  --- 0 AODV 44 [0 0 0 0] [energy 99.999248 ei 0.001 es 0.000 et 0.000 er 0.000] ------- [30:255 -1:255 1 0] [0x1 1 [30 8] 4.000000] (HELLO)
N -t 0.874980 -n 32 -e 99.999239
N -t 0.874980 -n 46 -e 99.999267
N -t 0.874980 -n 18 -e 99.999267
N -t 0.874980 -n 25 -e 99.999176
N -t 0.874980 -n 47 -e 99.999145
r 0.875821095 _32_ RTR  --- 0 AODV 44 [0 ffffffff 1e 800] [energy 99.999239 ei 0.001 es 0.000 et 0.000 er 0.000] ------- [30:255 -1:255 1 0] [0x1 1 [30 8] 4.000000] (HELLO)
r 0.875821203 _46_ RTR  --- 0 AODV 44 [0 ffffffff 1e 800] [energy 99.999267 ei 0.001 es 0.000 et 0.000 er 0.000] ------- [30:255 -1:255 1 0] [0x1 1 [30 8] 4.000000] (HELLO)
r 0.875821218 _18_ RTR  --- 0 AODV 44 [0 ffffffff 1e 800] [energy 99.999267 ei 0.001 es 0.000 et 0.000 er 0.000] ------- [30:255 -1:255 1 0] [0x1 1 [30 8] 4.000000] (HELLO)
r 0.875821249 _25_ RTR  --- 0 AODV 44 [0 ffffffff 1e 800] [energy 99.999176 ei 0.001 es 0.000 et 0.000 er 0.000] ------- [30:255 -1:255 1 0] [0x1 1 [30 8] 4.000000] (HELLO)
s 0.877917130 _14_ RTR  --- 0 AODV 44 [0 0 0 0] [energy 99.999974 ei 0.000 es 0.000 et 0.000 er 0.000] ------- [14:255 -1:255 1 0] [0x1 1 [14 2] 4.000000] (HELLO)
s 0.877974117 _45_ RTR  --- 0 AODV 44 [0 0 0 0] [energy 99.999212 ei 0.001 es 0.000 et 0.000 er 0.000] ------- [45:255 -1:255 1 0] [0x1 1 [45 6] 4.000000] (HELLO)
N -t 0.878109 -n 40 -e 99.999210
N -t 0.878109 -n 31 -e 99.999135
N -t 0.878109 -n 38 -e 99.999236
N -t 0.878109 -n 41 -e 99.999240
N -t 0.878109 -n 26 -e 99.999208
N -t 0.878109 -n 27 -e 99.999132
r 0.878950399 _40_ RTR  --- 0 AODV 44 [0 ffffffff 2d 800] [energy 99.999210 ei 0.001 es 0.000 et 0.000 er 0.000] ------- [45:255 -1:255 1 0] [0x1 1 [45 6] 4.000000] (HELLO)
r 0.878950402 _31_ RTR  --- 0 AODV 44 [0 ffffffff 2d 800] [energy 99.999135 ei 0.001 es 0.000 et 0.000 er 0.000] ------- [45:255 -1:255 1 0] [0x1 1 [45 6] 4.000000] (HELLO)
r 0.878950444 _38_ RTR  --- 0 AODV 44 [0 ffffffff 2d 800] [energy 99.999236 ei 0.001 es 0.000 et 0.000 er 0.000] ------- [45:255 -1:255 1 0] [0x1 1 [45 6] 4.000000] (HELLO)
r 0.878950446 _41_ RTR  --- 0 AODV 44 [0 ffffffff 2d 800] [energy 99.999240 ei 0.001 es 0.000 et 0.000 er 0.000] ------- [45:255 -1:255 1 0] [0x1 1 [45 6] 4.000000] (HELLO)
s 0.887148921 _2_ RTR  --- 0 AODV 44 [0 0 0 0] [energy 99.999974 ei 0.000 es 0.000 et 0.000 er 0.000] ------- [2:255 -1:255 1 0] [0x1 1 [2 2] 4.000000] (HELLO)
s 0.887284038 _28_ RTR  --- 0 AODV 44 [0 0 0 0] [energy 99.999974 ei 0.000 es 0.000 et 0.000 er 0.000] ------- [28:255 -1:255 1 0] [0x1 1 [28 2] 4.000000] (HELLO)
s 0.891070484 _12_ RTR  --- 0 AODV 44 [0 0 0 0] [energy 99.999945 ei 0.000 es 0.000 et 0.000 er 0.000] ------- [12:255 -1:255 1 0] [0x1 1 [12 2] 4.000000] (HELLO)
N -t 0.891546 -n 7 -e 99.999283
s 0.897080248 _40_ RTR  --- 0 AODV 44 [0 0 0 0] [energy 99.999210 ei 0.001 es 0.000 et 0.000 er 0.000] ------- [40:255 -1:255 1 0] [0x1 1 [40 6] 4.000000] (HELLO)
N -t 0.897336 -n 45 -e 99.999133
N -t 0.897336 -n 42 -e 99.999228
N -t 0.897336 -n 47 -e 99.999101
r 0.898176530 _45_ RTR  --- 0 AODV 44 [0 ffffffff 28 800] [energy 99.999133 ei 0.001 es 0.000 et 0.000 er 0.000] ------- [40:255 -1:255 1 0] [0x1 1 [40 6] 4.000000] (HELLO)
r 0.898176538 _42_ RTR  --- 0 AODV 44 [0 ffffffff 28 800] [energy 99.999228 ei 0.001 es 0.000 et 0.000 er 0.000] ------- [40:255 -1:255 1 0] [0x1 1 [40 6] 4.000000] (HELLO)
s 0.911356121 _37_ RTR  --- 0 AODV 44 [0 0 0 0] [energy 99.999302 ei 0.001 es 0.000 et 0.000 er 0.000] ------- [37:255 -1:255 1 0] [0x1 1 [37 4] 4.000000] (HELLO)
N -t 0.911931 -n 34 -e 99.999200
N -t 0.911931 -n 44 -e 99.999165
s 0.912603899 _13_ RTR  --- 0 AODV 44 [0 0 0 0] [energy 99.999974 ei 0.000 es 0.000 et 0.000 er 0.000] ------- [13:255 -1:255 1 0] [0x1 1 [13 2] 4.000000] (HELLO)
r 0.912772365 _34_ RTR  --- 0 AODV 44 [0 ffffffff 25 800] [energy 99.999200 ei 0.001 es 0.000 et 0.000 er 0.000] ------- [37:255 -1:255 1 0] [0x1 1 [37 4] 4.000000] (HELLO)
r 0.912772445 _44_ RTR  --- 0 AODV 44 [0 ffffffff 25 800] [energy 99.999165 ei 0.001 es 0.000 et 0.000 er 0.000] ------- [37:255 -1:255 1 0] [0x1 1 [37 4] 4.000000] (HELLO)
s 0.931290656 _20_ RTR  --- 0 AODV 44 [0 0 0 0] [energy 99.999974 ei 0.000 es 0.000 et 0.000 er 0.000] ------- [20:255 -1:255 1 0] [0x1 1 [20 2] 4.000000] (HELLO)
s 0.940776591 _47_ RTR  --- 0 AODV 44 [0 0 0 0] [energy 99.999101 ei 0.001 es 0.000 et 0.000 er 0.000] ------- [47:255 -1:255 1 0] [0x1 1 [47 6] 4.000000] (HELLO)
N -t 0.941192 -n 25 -e 99.999100
N -t 0.941192 -n 27 -e 99.999059
N -t 0.941192 -n 32 -e 99.999163
N -t 0.941192 -n 30 -e 99.999116
N -t 0.941192 -n 40 -e 99.999112
N -t 0.941192 -n 31 -e 99.999062
r 0.942032773 _25_ RTR  --- 0 AODV 44 [0 ffffffff 2f 800] [energy 99.999100 ei 0.001 es 0.000 et 0.000 er 0.000] ------- [47:255 -1:255 1 0] [0x1 1 [47 6] 4.000000] (HELLO)
r 0.942032824 _27_ RTR  --- 0 AODV 44 [0 ffffffff 2f 800] [energy 99.999059 ei 0.001 es 0.000 et 0.000 er 0.000] ------- [47:255 -1:255 1 0] [0x1 1 [47 6] 4.000000] (HELLO)