v 0 eval {set sim_annotation {MOBILE NODE MOVEMENTS}}
M 0.20000 2 (201.00, 552.00, 0.00), (309.00, 211.00), 20.00
M 0.75000 0 (36.00, 529.00, 0.00), (379.00, 349.00), 20.00
M 0.75000 1 (143.00, 666.00, 0.00), (556.00, 302.00), 20.00
M 0.75000 4 (230.00, 291.00, 0.00), (139.00, 63.00), 20.00
M 0.75000 5 (295.00, 419.00, 0.00), (320.00, 27.00), 20.00
M 1.25000 3 (147.00, 403.00, 0.00), (179.00, 333.00), 20.00
M 1.25000 7 (334.00, 647.00, 0.00), (274.00, 487.00), 20.00
M 1.25000 8 (304.00, 777.00, 0.00), (494.00, 475.00), 20.00
M 1.25000 9 (412.00, 194.00, 0.00), (899.00, 757.00), 25.00
M 1.50000 6 (363.00, 335.00, 0.00), (505.00, 124.00), 20.00
s 2.400000000 _8_ AGT  --- 0 cbr 1000 [0 0 0 0] [energy 100.000000 ei 0.000 es 0.000 et 0.000 er 0.000] ------- [8:0 5:0 32 0] [0] 0 0
r 2.400000000 _8_ RTR  --- 0 cbr 1000 [0 0 0 0] [energy 100.000000 ei 0.000 es 0.000 et 0.000 er 0.000] ------- [8:0 5:0 32 0] [0] 0 0
s 2.400000000 _8_ RTR  --- 0 MYAODV 48 [0 0 0 0] [energy 100.000000 ei 0.000 es 0.000 et 0.000 er 0.000] ------- [8:255 -1:255 30 0] [0x2 1 1 [5 0] [8 4]] (REQUEST)
s 2.417857143 _8_ AGT  --- 1 cbr 1000 [0 0 0 0] [energy 99.998265 ei 0.002 es 0.000 et 0.000 er 0.000] ------- [8:0 5:0 32 0] [1] 0 0
r 2.417857143 _8_ RTR  --- 1 cbr 1000 [0 0 0 0] [energy 99.998265 ei 0.002 es 0.000 et 0.000 er 0.000] ------- [8:0 5:0 32 0] [1] 0 0
s 2.435714286 _8_ AGT  --- 2 cbr 1000 [0 0 0 0] [energy 99.998265 ei 0.002 es 0.000 et 0.000 er 0.000] ------- [8:0 5:0 32 0] [2] 0 0
r 2.435714286 _8_ RTR  --- 2 cbr 1000 [0 0 0 0] [energy 99.998265 ei 0.002 es 0.000 et 0.000 er 0.000] ------- [8:0 5:0 32 0] [2] 0 0
s 2.453571429 _8_ AGT  --- 3 cbr 1000 [0 0 0 0] [energy 99.998265 ei 0.002 es 0.000 et 0.000 er 0.000] ------- [8:0 5:0 32 0] [3] 0 0
r 2.453571429 _8_ RTR  --- 3 cbr 1000 [0 0 0 0] [energy 99.998265 ei 0.002 es 0.000 et 0.000 er 0.000] ------- [8:0 5:0 32 0] [3] 0 0
s 2.471428571 _8_ AGT  --- 4 cbr 1000 [0 0 0 0] [energy 99.998265 ei 0.002 es 0.000 et 0.000 er 0.000] ------- [8:0 5:0 32 0] [4] 0 0
r 2.471428571 _8_ RTR  --- 4 cbr 1000 [0 0 0 0] [energy 99.998265 ei 0.002 es 0.000 et 0.000 er 0.000] ------- [8:0 5:0 32 0] [4] 0 0
s 2.489285714 _8_ AGT  --- 5 cbr 1000 [0 0 0 0] [energy 99.998265 ei 0.002 es 0.000 et 0.000 er 0.000] ------- [8:0 5:0 32 0] [5] 0 0
r 2.489285714 _8_ RTR  --- 5 cbr 1000 [0 0 0 0] [energy 99.998265 ei 0.002 es 0.000 et 0.000 er 0.000] ------- [8:0 5:0 32 0] [5] 0 0
s 2.507142857 _8_ AGT  --- 6 cbr 1000 [0 0 0 0] [energy 99.998265 ei 0.002 es 0.000 et 0.000 er 0.000] ------- [8:0 5:0 32 0] [6] 0 0
r 2.507142857 _8_ RTR  --- 6 cbr 1000 [0 0 0 0] [energy 99.998265 ei 0.002 es 0.000 et 0.000 er 0.000] ------- [8:0 5:0 32 0] [6] 0 0
s 2.525000000 _8_ AGT  --- 7 cbr 1000 [0 0 0 0] [energy 99.998265 ei 0.002 es 0.000 et 0.000 er 0.000] ------- [8:0 5:0 32 0] [7] 0 0
r 2.525000000 _8_ RTR  --- 7 cbr 1000 [0 0 0 0] [energy 99.998265 ei 0.002 es 0.000 et 0.000 er 0.000] ------- [8:0 5:0 32 0] [7] 0 0
s 2.542857143 _8_ AGT  --- 8 cbr 1000 [0 0 0 0] [energy 99.998265 ei 0.002 es 0.000 et 0.000 er 0.000] ------- [8:0 5:0 32 0] [8] 0 0
r 2.542857143 _8_ RTR  --- 8 cbr 1000 [0 0 0 0] [energy 99.998265 ei 0.002 es 0.000 et 0.000 er 0.000] ------- [8:0 5:0 32 0] [8] 0 0
s 2.560714286 _8_ AGT  --- 9 cbr 1000 [0 0 0 0] [energy 99.998265 ei 0.002 es 0.000 et 0.000 er 0.000] ------- [8:0 5:0 32 0] [9] 0 0
r 2.560714286 _8_ RTR  --- 9 cbr 1000 [0 0 0 0] [energy 99.998265 ei 0.002 es 0.000 et 0.000 er 0.000] ------- [8:0 5:0 32 0] [9] 0 0
s 2.578571429 _8_ AGT  --- 10 cbr 1000 [0 0 0 0] [energy 99.998265 ei 0.002 es 0.000 et 0.000 er 0.000] ------- [8:0 5:0 32 0] [10] 0 0
r 2.578571429 _8_ RTR  --- 10 cbr 1000 [0 0 0 0] [energy 99.998265 ei 0.002 es 0.000 et 0.000 er 0.000] ------- [8:0 5:0 32 0] [10] 0 0
s 2.596428571 _8_ AGT  --- 11 cbr 1000 [0 0 0 0] [energy 99.998265 ei 0.002 es 0.000 et 0.000 er 0.000] ------- [8:0 5:0 32 0] [11] 0 0
r 2.596428571 _8_ RTR  --- 11 cbr 1000 [0 0 0 0] [energy 99.998265 ei 0.002 es 0.000 et 0.000 er 0.000] ------- [8:0 5:0 32 0] [11] 0 0
s 2.614285714 _8_ AGT  --- 12 cbr 1000 [0 0 0 0] [energy 99.998265 ei 0.002 es 0.000 et 0.000 er 0.000] ------- [8:0 5:0 32 0] [12] 0 0
r 2.614285714 _8_ RTR  --- 12 cbr 1000 [0 0 0 0] [energy 99.998265 ei 0.002 es 0.000 et 0.000 er 0.000] ------- [8:0 5:0 32 0] [12] 0 0
s 2.632142857 _8_ AGT  --- 13 cbr 1000 [0 0 0 0] [energy 99.998265 ei 0.002 es 0.000 et 0.000 er 0.000] ------- [8:0 5:0 32 0] [13] 0 0
r 2.632142857 _8_ RTR  --- 13 cbr 1000 [0 0 0 0] [energy 99.998265 ei 0.002 es 0.000 et 0.000 er 0.000] ------- [8:0 5:0 32 0] [13] 0 0
s 2.650000000 _8_ AGT  --- 14 cbr 1000 [0 0 0 0] [energy 99.998265 ei 0.002 es 0.000 et 0.000 er 0.000] ------- [8:0 5:0 32 0] [14] 0 0
r 2.650000000 _8_ RTR  --- 14 cbr 1000 [0 0 0 0] [energy 99.998265 ei 0.002 es 0.000 et 0.000 er 0.000] ------- [8:0 5:0 32 0] [14] 0 0
s 2.667857143 _8_ AGT  --- 15 cbr 1000 [0 0 0 0] [energy 99.998265 ei 0.002 es 0.000 et 0.000 er 0.000] ------- [8:0 5:0 32 0] [15] 0 0
r 2.667857143 _8_ RTR  --- 15 cbr 1000 [0 0 0 0] [energy 99.998265 ei 0.002 es 0.000 et 0.000 er 0.000] ------- [8:0 5:0 32 0] [15] 0 0
s 2.685714286 _8_ AGT  --- 16 cbr 1000 [0 0 0 0] [energy 99.998265 ei 0.002 es 0.000 et 0.000 er 0.000] ------- [8:0 5:0 32 0] [16] 0 0
r 2.685714286 _8_ RTR  --- 16 cbr 1000 [0 0 0 0] [energy 99.998265 ei 0.002 es 0.000 et 0.000 er 0.000] ------- [8:0 5:0 32 0] [16] 0 0
s 2.703571429 _8_ AGT  --- 17 cbr 1000 [0 0 0 0] [energy 99.998265 ei 0.002 es 0.000 et 0.000 er 0.000] ------- [8:0 5:0 32 0] [17] 0 0
r 2.703571429 _8_ RTR  --- 17 cbr 1000 [0 0 0 0] [energy 99.998265 ei 0.002 es 0.000 et 0.000 er 0.000] ------- [8:0 5:0 32 0] [17] 0 0
s 2.721428571 _8_ AGT  --- 18 cbr 1000 [0 0 0 0] [energy 99.998265 ei 0.002 es 0.000 et 0.000 er 0.000] ------- [8:0 5:0 32 0] [18] 0 0
r 2.721428571 _8_ RTR  --- 18 cbr 1000 [0 0 0 0] [energy 99.998265 ei 0.002 es 0.000 et 0.000 er 0.000] ------- [8:0 5:0 32 0] [18] 0 0
s 2.739285714 _8_ AGT  --- 19 cbr 1000 [0 0 0 0] [energy 99.998265 ei 0.002 es 0.000 et 0.000 er 0.000] ------- [8:0 5:0 32 0] [19] 0 0
r 2.739285714 _8_ RTR  --- 19 cbr 1000 [0 0 0 0] [energy 99.998265 ei 0.002 es 0.000 et 0.000 er 0.000] ------- [8:0 5:0 32 0] [19] 0 0
s 2.757142857 _8_ AGT  --- 20 cbr 1000 [0 0 0 0] [energy 99.998265 ei 0.002 es 0.000 et 0.000 er 0.000] ------- [8:0 5:0 32 0] [20] 0 0
r 2.757142857 _8_ RTR  --- 20 cbr 1000 [0 0 0 0] [energy 99.998265 ei 0.002 es 0.000 et 0.000 er 0.000] ------- [8:0 5:0 32 0] [20] 0 0
s 2.775000000 _8_ AGT  --- 21 cbr 1000 [0 0 0 0] [energy 99.998265 ei 0.002 es 0.000 et 0.000 er 0.000] ------- [8:0 5:0 32 0] [21] 0 0
r 2.775000000 _8_ RTR  --- 21 cbr 1000 [0 0 0 0] [energy 99.998265 ei 0.002 es 0.000 et 0.000 er 0.000] ------- [8:0 5:0 32 0] [21] 0 0
s 2.792857143 _8_ AGT  --- 22 cbr 1000 [0 0 0 0] [energy 99.998265 ei 0.002 es 0.000 et 0.000 er 0.000] ------- [8:0 5:0 32 0] [22] 0 0
r 2.792857143 _8_ RTR  --- 22 cbr 1000 [0 0 0 0] [energy 99.998265 ei 0.002 es 0.000 et 0.000 er 0.000] ------- [8:0 5:0 32 0] [22] 0 0
s 2.810714286 _8_ AGT  --- 23 cbr 1000 [0 0 0 0] [energy 99.998265 ei 0.002 es 0.000 et 0.000 er 0.000] ------- [8:0 5:0 32 0] [23] 0 0
r 2.810714286 _8_ RTR  --- 23 cbr 1000 [0 0 0 0] [energy 99.998265 ei 0.002 es 0.000 et 0.000 er 0.000] ------- [8:0 5:0 32 0] [23] 0 0
s 2.828571429 _8_ AGT  --- 24 cbr 1000 [0 0 0 0] [energy 99.998265 ei 0.002 es 0.000 et 0.000 er 0.000] ------- [8:0 5:0 32 0] [24] 0 0
r 2.828571429 _8_ RTR  --- 24 cbr 1000 [0 0 0 0] [energy 99.998265 ei 0.002 es 0.000 et 0.000 er 0.000] ------- [8:0 5:0 32 0] [24] 0 0
s 2.846428571 _8_ AGT  --- 25 cbr 1000 [0 0 0 0] [energy 99.998265 ei 0.002 es 0.000 et 0.000 er 0.000] ------- [8:0 5:0 32 0] [25] 0 0
r 2.846428571 _8_ RTR  --- 25 cbr 1000 [0 0 0 0] [energy 99.998265 ei 0.002 es 0.000 et 0.000 er 0.000] ------- [8:0 5:0 32 0] [25] 0 0
s 2.864285714 _8_ AGT  --- 26 cbr 1000 [0 0 0 0] [energy 99.998265 ei 0.002 es 0.000 et 0.000 er 0.000] ------- [8:0 5:0 32 0] [26] 0 0
r 2.864285714 _8_ RTR  --- 26 cbr 1000 [0 0 0 0] [energy 99.998265 ei 0.002 es 0.000 et 0.000 er 0.000] ------- [8:0 5:0 32 0] [26] 0 0
s 2.882142857 _8_ AGT  --- 27 cbr 1000 [0 0 0 0] [energy 99.998265 ei 0.002 es 0.000 et 0.000 er 0.000] ------- [8:0 5:0 32 0] [27] 0 0
r 2.882142857 _8_ RTR  --- 27 cbr 1000 [0 0 0 0] [energy 99.998265 ei 0.002 es 0.000 et 0.000 er 0.000] ------- [8:0 5:0 32 0] [27] 0 0
s 2.900000000 _8_ AGT  --- 28 cbr 1000 [0 0 0 0] [energy 99.998265 ei 0.002 es 0.000 et 0.000 er 0.000] ------- [8:0 5:0 32 0] [28] 0 0
r 2.900000000 _8_ RTR  --- 28 cbr 1000 [0 0 0 0] [energy 99.998265 ei 0.002 es 0.000 et 0.000 er 0.000] ------- [8:0 5:0 32 0] [28] 0 0
s 2.917857143 _8_ AGT  --- 29 cbr 1000 [0 0 0 0] [energy 99.998265 ei 0.002 es 0.000 et 0.000 er 0.000] ------- [8:0 5:0 32 0] [29] 0 0
r 2.917857143 _8_ RTR  --- 29 cbr 1000 [0 0 0 0] [energy 99.998265 ei 0.002 es 0.000 et 0.000 er 0.000] ------- [8:0 5:0 32 0] [29] 0 0
s 2.935714286 _8_ AGT  --- 30 cbr 1000 [0 0 0 0] [energy 99.998265 ei 0.002 es 0.000 et 0.000 er 0.000] ------- [8:0 5:0 32 0] [30] 0 0
r 2.935714286 _8_ RTR  --- 30 cbr 1000 [0 0 0 0] [energy 99.998265 ei 0.002 es 0.000 et 0.000 er 0.000] ------- [8:0 5:0 32 0] [30] 0 0
s 2.953571429 _8_ AGT  --- 31 cbr 1000 [0 0 0 0] [energy 99.998265 ei 0.002 es 0.000 et 0.000 er 0.000] ------- [8:0 5:0 32 0] [31] 0 0
r 2.953571429 _8_ RTR  --- 31 cbr 1000 [0 0 0 0] [energy 99.998265 ei 0.002 es 0.000 et 0.000 er 0.000] ------- [8:0 5:0 32 0] [31] 0 0
s 2.971428571 _8_ AGT  --- 32 cbr 1000 [0 0 0 0] [energy 99.998265 ei 0.002 es 0.000 et 0.000 er 0.000] ------- [8:0 5:0 32 0] [32] 0 0
r 2.971428571 _8_ RTR  --- 32 cbr 1000 [0 0 0 0] [energy 99.998265 ei 0.002 es 0.000 et 0.000 er 0.000] ------- [8:0 5:0 32 0] [32] 0 0
s 2.989285714 _8_ AGT  --- 33 cbr 1000 [0 0 0 0] [energy 99.998265 ei 0.002 es 0.000 et 0.000 er 0.000] ------- [8:0 5:0 32 0] [33] 0 0
r 2.989285714 _8_ RTR  --- 33 cbr 1000 [0 0 0 0] [energy 99.998265 ei 0.002 es 0.000 et 0.000 er 0.000] ------- [8:0 5:0 32 0] [33] 0 0
s 3.007142857 _8_ AGT  --- 34 cbr 1000 [0 0 0 0] [energy 99.998265 ei 0.002 es 0.000 et 0.000 er 0.000] ------- [8:0 5:0 32 0] [34] 0 0
r 3.007142857 _8_ RTR  --- 34 cbr 1000 [0 0 0 0] [energy 99.998265 ei 0.002 es 0.000 et 0.000 er 0.000] ------- [8:0 5:0 32 0] [34] 0 0
s 3.025000000 _8_ AGT  --- 35 cbr 1000 [0 0 0 0] [energy 99.998265 ei 0.002 es 0.000 et 0.000 er 0.000] ------- [8:0 5:0 32 0] [35] 0 0
r 3.025000000 _8_ RTR  --- 35 cbr 1000 [0 0 0 0] [energy 99.998265 ei 0.002 es 0.000 et 0.000 er 0.000] ------- [8:0 5:0 32 0] [35] 0 0
s 3.042857143 _8_ AGT  --- 36 cbr 1000 [0 0 0 0] [energy 99.998265 ei 0.002 es 0.000 et 0.000 er 0.000] ------- [8:0 5:0 32 0] [36] 0 0
r 3.042857143 _8_ RTR  --- 36 cbr 1000 [0 0 0 0] [energy 99.998265 ei 0.002 es 0.000 et 0.000 er 0.000] ------- [8:0 5:0 32 0] [36] 0 0
s 3.060714286 _8_ AGT  --- 37 cbr 1000 [0 0 0 0] [energy 99.998265 ei 0.002 es 0.000 et 0.000 er 0.000] ------- [8:0 5:0 32 0] [37] 0 0
r 3.060714286 _8_ RTR  --- 37 cbr 1000 [0 0 0 0] [energy 99.998265 ei 0.002 es 0.000 et 0.000 er 0.000] ------- [8:0 5:0 32 0] [37] 0 0
s 3.078571429 _8_ AGT  --- 38 cbr 1000 [0 0 0 0] [energy 99.998265 ei 0.002 es 0.000 et 0.000 er 0.000] ------- [8:0 5:0 32 0] [38] 0 0
r 3.078571429 _8_ RTR  --- 38 cbr 1000 [0 0 0 0] [energy 99.998265 ei 0.002 es 0.000 et 0.000 er 0.000] ------- [8:0 5:0 32 0] [38] 0 0
s 3.096428571 _8_ AGT  --- 39 cbr 1000 [0 0 0 0] [energy 99.998265 ei 0.002 es 0.000 et 0.000 er 0.000] ------- [8:0 5:0 32 0] [39] 0 0
r 3.096428571 _8_ RTR  --- 39 cbr 1000 [0 0 0 0] [energy 99.998265 ei 0.002 es 0.000 et 0.000 er 0.000] ------- [8:0 5:0 32 0] [39] 0 0
s 3.114285714 _8_ AGT  --- 40 cbr 1000 [0 0 0 0] [energy 99.998265 ei 0.002 es 0.000 et 0.000 er 0.000] ------- [8:0 5:0 32 0] [40] 0 0
r 3.114285714 _8_ RTR  --- 40 cbr 1000 [0 0 0 0] [energy 99.998265 ei 0.002 es 0.000 et 0.000 er 0.000] ------- [8:0 5:0 32 0] [40] 0 0
s 3.132142857 _8_ AGT  --- 41 cbr 1000 [0 0 0 0] [energy 99.998265 ei 0.002 es 0.000 et 0.000 er 0.000] ------- [8:0 5:0 32 0] [41] 0 0
r 3.132142857 _8_ RTR  --- 41 cbr 1000 [0 0 0 0] [energy 99.998265 ei 0.002 es 0.000 et 0.000 er 0.000] ------- [8:0 5:0 32 0] [41] 0 0
s 3.150000000 _8_ AGT  --- 42 cbr 1000 [0 0 0 0] [energy 99.998265 ei 0.002 es 0.000 et 0.000 er 0.000] ------- [8:0 5:0 32 0] [42] 0 0
r 3.150000000 _8_ RTR  --- 42 cbr 1000 [0 0 0 0] [energy 99.998265 ei 0.002 es 0.000 et 0.000 er 0.000] ------- [8:0 5:0 32 0] [42] 0 0
s 3.167857143 _8_ AGT  --- 43 cbr 1000 [0 0 0 0] [energy 99.998265 ei 0.002 es 0.000 et 0.000 er 0.000] ------- [8:0 5:0 32 0] [43] 0 0
r 3.167857143 _8_ RTR  --- 43 cbr 1000 [0 0 0 0] [energy 99.998265 ei 0.002 es 0.000 et 0.000 er 0.000] ------- [8:0 5:0 32 0] [43] 0 0
s 3.185714286 _8_ AGT  --- 44 cbr 1000 [0 0 0 0] [energy 99.998265 ei 0.002 es 0.000 et 0.000 er 0.000] ------- [8:0 5:0 32 0] [44] 0 0
r 3.185714286 _8_ RTR  --- 44 cbr 1000 [0 0 0 0] [energy 99.998265 ei 0.002 es 0.000 et 0.000 er 0.000] ------- [8:0 5:0 32 0] [44] 0 0
s 3.203571429 _8_ AGT  --- 45 cbr 1000 [0 0 0 0] [energy 99.998265 ei 0.002 es 0.000 et 0.000 er 0.000] ------- [8:0 5:0 32 0] [45] 0 0
r 3.203571429 _8_ RTR  --- 45 cbr 1000 [0 0 0 0] [energy 99.998265 ei 0.002 es 0.000 et 0.000 er 0.000] ------- [8:0 5:0 32 0] [45] 0 0
s 3.221428571 _8_ AGT  --- 46 cbr 1000 [0 0 0 0] [energy 99.998265 ei 0.002 es 0.000 et 0.000 er 0.000] ------- [8:0 5:0 32 0] [46] 0 0
r 3.221428571 _8_ RTR  --- 46 cbr 1000 [0 0 0 0] [energy 99.998265 ei 0.002 es 0.000 et 0.000 er 0.000] ------- [8:0 5:0 32 0] [46] 0 0
s 3.239285714 _8_ AGT  --- 47 cbr 1000 [0 0 0 0] [energy 99.998265 ei 0.002 es 0.000 et 0.000 er 0.000] ------- [8:0 5:0 32 0] [47] 0 0
r 3.239285714 _8_ RTR  --- 47 cbr 1000 [0 0 0 0] [energy 99.998265 ei 0.002 es 0.000 et 0.000 er 0.000] ------- [8:0 5:0 32 0] [47] 0 0
s 3.257142857 _8_ AGT  --- 48 cbr 1000 [0 0 0 0] [energy 99.998265 ei 0.002 es 0.000 et 0.000 er 0.000] ------- [8:0 5:0 32 0] [48] 0 0
r 3.257142857 _8_ RTR  --- 48 cbr 1000 [0 0 0 0] [energy 99.998265 ei 0.002 es 0.000 et 0.000 er 0.000] ------- [8:0 5:0 32 0] [48] 0 0
s 3.275000000 _8_ AGT  --- 49 cbr 1000 [0 0 0 0] [energy 99.998265 ei 0.002 es 0.000 et 0.000 er 0.000] ------- [8:0 5:0 32 0] [49] 0 0
r 3.275000000 _8_ RTR  --- 49 cbr 1000 [0 0 0 0] [energy 99.998265 ei 0.002 es 0.000 et 0.000 er 0.000] ------- [8:0 5:0 32 0] [49] 0 0
s 3.292857143 _8_ AGT  --- 50 cbr 1000 [0 0 0 0] [energy 99.998265 ei 0.002 es 0.000 et 0.000 er 0.000] ------- [8:0 5:0 32 0] [50] 0 0
r 3.292857143 _8_ RTR  --- 50 cbr 1000 [0 0 0 0] [energy 99.998265 ei 0.002 es 0.000 et 0.000 er 0.000] ------- [8:0 5:0 32 0] [50] 0 0
s 3.310714286 _8_ AGT  --- 51 cbr 1000 [0 0 0 0] [energy 99.998265 ei 0.002 es 0.000 et 0.000 er 0.000] ------- [8:0 5:0 32 0] [51] 0 0
r 3.310714286 _8_ RTR  --- 51 cbr 1000 [0 0 0 0] [energy 99.998265 ei 0.002 es 0.000 et 0.000 er 0.000] ------- [8:0 5:0 32 0] [51] 0 0
s 3.328571429 _8_ AGT  --- 52 cbr 1000 [0 0 0 0] [energy 99.998265 ei 0.002 es 0.000 et 0.000 er 0.000] ------- [8:0 5:0 32 0] [52] 0 0
r 3.328571429 _8_ RTR  --- 52 cbr 1000 [0 0 0 0] [energy 99.998265 ei 0.002 es 0.000 et 0.000 er 0.000] ------- [8:0 5:0 32 0] [52] 0 0
s 3.346428571 _8_ AGT  --- 53 cbr 1000 [0 0 0 0] [energy 99.998265 ei 0.002 es 0.000 et 0.000 er 0.000] ------- [8:0 5:0 32 0] [53] 0 0
r 3.346428571 _8_ RTR  --- 53 cbr 1000 [0 0 0 0] [energy 99.998265 ei 0.002 es 0.000 et 0.000 er 0.000] ------- [8:0 5:0 32 0] [53] 0 0
s 3.364285714 _8_ AGT  --- 54 cbr 1000 [0 0 0 0] [energy 99.998265 ei 0.002 es 0.000 et 0.000 er 0.000] ------- [8:0 5:0 32 0] [54] 0 0
r 3.364285714 _8_ RTR  --- 54 cbr 1000 [0 0 0 0] [energy 99.998265 ei 0.002 es 0.000 et 0.000 er 0.000] ------- [8:0 5:0 32 0] [54] 0 0
s 3.382142857 _8_ AGT  --- 55 cbr 1000 [0 0 0 0] [energy 99.998265 ei 0.002 es 0.000 et 0.000 er 0.000] ------- [8:0 5:0 32 0] [55] 0 0
r 3.382142857 _8_ RTR  --- 55 cbr 1000 [0 0 0 0] [energy 99.998265 ei 0.002 es 0.000 et 0.000 er 0.000] ------- [8:0 5:0 32 0] [55] 0 0
s 3.400000000 _8_ AGT  --- 56 cbr 1000 [0 0 0 0] [energy 99.998265 ei 0.002 es 0.000 et 0.000 er 0.000] ------- [8:0 5:0 32 0] [56] 0 0
r 3.400000000 _8_ RTR  --- 56 cbr 1000 [0 0 0 0] [energy 99.998265 ei 0.002 es 0.000 et 0.000 er 0.000] ------- [8:0 5:0 32 0] [56] 0 0
s 3.417857143 _8_ AGT  --- 57 cbr 1000 [0 0 0 0] [energy 99.998265 ei 0.002 es 0.000 et 0.000 er 0.000] ------- [8:0 5:0 32 0] [57] 0 0
r 3.417857143 _8_ RTR  --- 57 cbr 1000 [0 0 0 0] [energy 99.998265 ei 0.002 es 0.000 et 0.000 er 0.000] ------- [8:0 5:0 32 0] [57] 0 0
s 3.435714286 _8_ AGT  --- 58 cbr 1000 [0 0 0 0] [energy 99.998265 ei 0.002 es 0.000 et 0.000 er 0.000] ------- [8:0 5:0 32 0] [58] 0 0
r 3.435714286 _8_ RTR  --- 58 cbr 1000 [0 0 0 0] [energy 99.998265 ei 0.002 es 0.000 et 0.000 er 0.000] ------- [8:0 5:0 32 0] [58] 0 0
s 3.453571429 _8_ AGT  --- 59 cbr 1000 [0 0 0 0] [energy 99.998265 ei 0.002 es 0.000 et 0.000 er 0.000] ------- [8:0 5:0 32 0] [59] 0 0
r 3.453571429 _8_ RTR  --- 59 cbr 1000 [0 0 0 0] [energy 99.998265 ei 0.002 es 0.000 et 0.000 er 0.000] ------- [8:0 5:0 32 0] [59] 0 0
s 3.471428571 _8_ AGT  --- 60 cbr 1000 [0 0 0 0] [energy 99.998265 ei 0.002 es 0.000 et 0.000 er 0.000] ------- [8:0 5:0 32 0] [60] 0 0
r 3.471428571 _8_ RTR  --- 60 cbr 1000 [0 0 0 0] [energy 99.998265 ei 0.002 es 0.000 et 0.000 er 0.000] ------- [8:0 5:0 32 0] [60] 0 0
s 3.489285714 _8_ AGT  --- 61 cbr 1000 [0 0 0 0] [energy 99.998265 ei 0.002 es 0.000 et 0.000 er 0.000] ------- [8:0 5:0 32 0] [61] 0 0
r 3.489285714 _8_ RTR  --- 61 cbr 1000 [0 0 0 0] [energy 99.998265 ei 0.002 es 0.000 et 0.000 er 0.000] ------- [8:0 5:0 32 0] [61] 0 0
s 3.507142857 _8_ AGT  --- 62 cbr 1000 [0 0 0 0] [energy 99.998265 ei 0.002 es 0.000 et 0.000 er 0.000] ------- [8:0 5:0 32 0] [62] 0 0
r 3.507142857 _8_ RTR  --- 62 cbr 1000 [0 0 0 0] [energy 99.998265 ei 0.002 es 0.000 et 0.000 er 0.000] ------- [8:0 5:0 32 0] [62] 0 0
s 3.525000000 _8_ AGT  --- 63 cbr 1000 [0 0 0 0] [energy 99.998265 ei 0.002 es 0.000 et 0.000 er 0.000] ------- [8:0 5:0 32 0] [63] 0 0
r 3.525000000 _8_ RTR  --- 63 cbr 1000 [0 0 0 0] [energy 99.998265 ei 0.002 es 0.000 et 0.000 er 0.000] ------- [8:0 5:0 32 0] [63] 0 0
s 3.542857143 _8_ AGT  --- 64 cbr 1000 [0 0 0 0] [energy 99.998265 ei 0.002 es 0.000 et 0.000 er 0.000] ------- [8:0 5:0 32 0] [64] 0 0
r 3.542857143 _8_ RTR  --- 64 cbr 1000 [0 0 0 0] [energy 99.998265 ei 0.002 es 0.000 et 0.000 er 0.000] ------- [8:0 5:0 32 0] [64] 0 0
D 3.542857143 _8_ RTR  IFQ 0 cbr 1020 [0 0 0 0] [energy 99.998265 ei 0.002 es 0.000 et 0.000 er 0.000] ------- [8:0 5:0 30 0] [0] 0 0
s 3.560714286 _8_ AGT  --- 65 cbr 1000 [0 0 0 0] [energy 99.998265 ei 0.002 es 0.000 et 0.000 er 0.000] ------- [8:0 5:0 32 0] [65] 0 0
r 3.560714286 _8_ RTR  --- 65 cbr 1000 [0 0 0 0] [energy 99.998265 ei 0.002 es 0.000 et 0.000 er 0.000] ------- [8:0 5:0 32 0] [65] 0 0
D 3.560714286 _8_ RTR  IFQ 1 cbr 1020 [0 0 0 0] [energy 99.998265 ei 0.002 es 0.000 et 0.000 er 0.000] ------- [8:0 5:0 30 0] [1] 0 0
s 3.578571429 _8_ AGT  --- 66 cbr 1000 [0 0 0 0] [energy 99.998265 ei 0.002 es 0.000 et 0.000 er 0.000] ------- [8:0 5:0 32 0] [66] 0 0
r 3.578571429 _8_ RTR  --- 66 cbr 1000 [0 0 0 0] [energy 99.998265 ei 0.002 es 0.000 et 0.000 er 0.000] ------- [8:0 5:0 32 0] [66] 0 0
D 3.578571429 _8_ RTR  IFQ 2 cbr 1020 [0 0 0 0] [energy 99.998265 ei 0.002 es 0.000 et 0.000 er 0.000] ------- [8:0 5:0 30 0] [2] 0 0
s 3.596428571 _8_ AGT  --- 67 cbr 1000 [0 0 0 0] [energy 99.998265 ei 0.002 es 0.000 et 0.000 er 0.000] ------- [8:0 5:0 32 0] [67] 0 0
r 3.596428571 _8_ RTR  --- 67 cbr 1000 [0 0 0 0] [energy 99.998265 ei 0.002 es 0.000 et 0.000 er 0.000] ------- [8:0 5:0 32 0] [67] 0 0
D 3.596428571 _8_ RTR  IFQ 3 cbr 1020 [0 0 0 0] [energy 99.998265 ei 0.002 es 0.000 et 0.000 er 0.000] ------- [8:0 5:0 30 0] [3] 0 0
s 3.614285714 _8_ AGT  --- 68 cbr 1000 [0 0 0 0] [energy 99.998265 ei 0.002 es 0.000 et 0.000 er 0.000] ------- [8:0 5:0 32 0] [68] 0 0
r 3.614285714 _8_ RTR  --- 68 cbr 1000 [0 0 0 0] [energy 99.998265 ei 0.002 es 0.000 et 0.000 er 0.000] ------- [8:0 5:0 32 0] [68] 0 0
D 3.614285714 _8_ RTR  IFQ 4 cbr 1020 [0 0 0 0] [energy 99.998265 ei 0.002 es 0.000 et 0.000 er 0.000] ------- [8:0 5:0 30 0] [4] 0 0
s 3.632142857 _8_ AGT  --- 69 cbr 1000 [0 0 0 0] [energy 99.998265 ei 0.002 es 0.000 et 0.000 er 0.000] ------- [8:0 5:0 32 0] [69] 0 0
r 3.632142857 _8_ RTR  --- 69 cbr 1000 [0 0 0 0] [energy 99.998265 ei 0.002 es 0.000 et 0.000 er 0.000] ------- [8:0 5:0 32 0] [69] 0 0
D 3.632142857 _8_ RTR  IFQ 5 cbr 1020 [0 0 0 0] [energy 99.998265 ei 0.002 es 0.000 et 0.000 er 0.000] ------- [8:0 5:0 30 0] [5] 0 0
s 3.650000000 _8_ AGT  --- 70 cbr 1000 [0 0 0 0] [energy 99.998265 ei 0.002 es 0.000 et 0.000 er 0.000] ------- [8:0 5:0 32 0] [70] 0 0
r 3.650000000 _8_ RTR  --- 70 cbr 1000 [0 0 0 0] [energy 99.998265 ei 0.002 es 0.000 et 0.000 er 0.000] ------- [8:0 5:0 32 0] [70] 0 0
D 3.650000000 _8_ RTR  IFQ 6 cbr 1020 [0 0 0 0] [energy 99.998265 ei 0.002 es 0.000 et 0.000 er 0.000] ------- [8:0 5:0 30 0] [6] 0 0
s 3.667857143 _8_ AGT  --- 71 cbr 1000 [0 0 0 0] [energy 99.998265 ei 0.002 es 0.000 et 0.000 er 0.000] ------- [8:0 5:0 32 0] [71] 0 0
r 3.667857143 _8_ RTR  --- 71 cbr 1000 [0 0 0 0] [energy 99.998265 ei 0.002 es 0.000 et 0.000 er 0.000] ------- [8:0 5:0 32 0] [71] 0 0
D 3.667857143 _8_ RTR  IFQ 7 cbr 1020 [0 0 0 0] [energy 99.998265 ei 0.002 es 0.000 et 0.000 er 0.000] ------- [8:0 5:0 30 0] [7] 0 0
s 3.685714286 _8_ AGT  --- 72 cbr 1000 [0 0 0 0] [energy 99.998265 ei 0.002 es 0.000 et 0.000 er 0.000] ------- [8:0 5:0 32 0] [72] 0 0
r 3.685714286 _8_ RTR  --- 72 cbr 1000 [0 0 0 0] [energy 99.998265 ei 0.002 es 0.000 et 0.000 er 0.000] ------- [8:0 5:0 32 0] [72] 0 0
D 3.685714286 _8_ RTR  IFQ 8 cbr 1020 [0 0 0 0] [energy 99.998265 ei 0.002 es 0.000 et 0.000 er 0.000] ------- [8:0 5:0 30 0] [8] 0 0
s 3.703571429 _8_ AGT  --- 73 cbr 1000 [0 0 0 0] [energy 99.998265 ei 0.002 es 0.000 et 0.000 er 0.000] ------- [8:0 5:0 32 0] [73] 0 0
r 3.703571429 _8_ RTR  --- 73 cbr 1000 [0 0 0 0] [energy 99.998265 ei 0.002 es 0.000 et 0.000 er 0.000] ------- [8:0 5:0 32 0] [73] 0 0
D 3.703571429 _8_ RTR  IFQ 9 cbr 1020 [0 0 0 0] [energy 99.998265 ei 0.002 es 0.000 et 0.000 er 0.000] ------- [8:0 5:0 30 0] [9] 0 0
s 3.721428571 _8_ AGT  --- 74 cbr 1000 [0 0 0 0] [energy 99.998265 ei 0.002 es 0.000 et 0.000 er 0.000] ------- [8:0 5:0 32 0] [74] 0 0
r 3.721428571 _8_ RTR  --- 74 cbr 1000 [0 0 0 0] [energy 99.998265 ei 0.002 es 0.000 et 0.000 er 0.000] ------- [8:0 5:0 32 0] [74] 0 0
D 3.721428571 _8_ RTR  IFQ 10 cbr 1020 [0 0 0 0] [energy 99.998265 ei 0.002 es 0.000 et 0.000 er 0.000] ------- [8:0 5:0 30 0] [10] 0 0
s 3.739285714 _8_ AGT  --- 75 cbr 1000 [0 0 0 0] [energy 99.998265 ei 0.002 es 0.000 et 0.000 er 0.000] ------- [8:0 5:0 32 0] [75] 0 0
r 3.739285714 _8_ RTR  --- 75 cbr 1000 [0 0 0 0] [energy 99.998265 ei 0.002 es 0.000 et 0.000 er 0.000] ------- [8:0 5:0 32 0] [75] 0 0
D 3.739285714 _8_ RTR  IFQ 11 cbr 1020 [0 0 0 0] [energy 99.998265 ei 0.002 es 0.000 et 0.000 er 0.000] ------- [8:0 5:0 30 0] [11] 0 0
s 3.757142857 _8_ AGT  --- 76 cbr 1000 [0 0 0 0] [energy 99.998265 ei 0.002 es 0.000 et 0.000 er 0.000] ------- [8:0 5:0 32 0] [76] 0 0
r 3.757142857 _8_ RTR  --- 76 cbr 1000 [0 0 0 0] [energy 99.998265 ei 0.002 es 0.000 et 0.000 er 0.000] ------- [8:0 5:0 32 0] [76] 0 0
D 3.757142857 _8_ RTR  IFQ 12 cbr 1020 [0 0 0 0] [energy 99.998265 ei 0.002 es 0.000 et 0.000 er 0.000] ------- [8:0 5:0 30 0] [12] 0 0
s 3.775000000 _8_ AGT  --- 77 cbr 1000 [0 0 0 0] [energy 99.998265 ei 0.002 es 0.000 et 0.000 er 0.000] ------- [8:0 5:0 32 0] [77] 0 0
r 3.775000000 _8_ RTR  --- 77 cbr 1000 [0 0 0 0] [energy 99.998265 ei 0.002 es 0.000 et 0.000 er 0.000] ------- [8:0 5:0 32 0] [77] 0 0
D 3.775000000 _8_ RTR  IFQ 13 cbr 1020 [0 0 0 0] [energy 99.998265 ei 0.002 es 0.000 et 0.000 er 0.000] ------- [8:0 5:0 30 0] [13] 0 0
s 3.792857143 _8_ AGT  --- 78 cbr 1000 [0 0 0 0] [energy 99.998265 ei 0.002 es 0.000 et 0.000 er 0.000] ------- [8:0 5:0 32 0] [78] 0 0
r 3.792857143 _8_ RTR  --- 78 cbr 1000 [0 0 0 0] [energy 99.998265 ei 0.002 es 0.000 et 0.000 er 0.000] ------- [8:0 5:0 32 0] [78] 0 0
D 3.792857143 _8_ RTR  IFQ 14 cbr 1020 [0 0 0 0] [energy 99.998265 ei 0.002 es 0.000 et 0.000 er 0.000] ------- [8:0 5:0 30 0] [14] 0 0
s 3.810714286 _8_ AGT  --- 79 cbr 1000 [0 0 0 0] [energy 99.998265 ei 0.002 es 0.000 et 0.000 er 0.000] ------- [8:0 5:0 32 0] [79] 0 0
r 3.810714286 _8_ RTR  --- 79 cbr 1000 [0 0 0 0] [energy 99.998265 ei 0.002 es 0.000 et 0.000 er 0.000] ------- [8:0 5:0 32 0] [79] 0 0
D 3.810714286 _8_ RTR  IFQ 15 cbr 1020 [0 0 0 0] [energy 99.998265 ei 0.002 es 0.000 et 0.000 er 0.000] ------- [8:0 5:0 30 0] [15] 0 0
s 3.828571429 _8_ AGT  --- 80 cbr 1000 [0 0 0 0] [energy 99.998265 ei 0.002 es 0.000 et 0.000 er 0.000] ------- [8:0 5:0 32 0] [80] 0 0
r 3.828571429 _8_ RTR  --- 80 cbr 1000 [0 0 0 0] [energy 99.998265 ei 0.002 es 0.000 et 0.000 er 0.000] ------- [8:0 5:0 32 0] [80] 0 0
D 3.828571429 _8_ RTR  IFQ 16 cbr 1020 [0 0 0 0] [energy 99.998265 ei 0.002 es 0.000 et 0.000 er 0.000] ------- [8:0 5:0 30 0] [16] 0 0
s 3.846428571 _8_ AGT  --- 81 cbr 1000 [0 0 0 0] [energy 99.998265 ei 0.002 es 0.000 et 0.000 er 0.000] ------- [8:0 5:0 32 0] [81] 0 0
r 3.846428571 _8_ RTR  --- 81 cbr 1000 [0 0 0 0] [energy 99.998265 ei 0.002 es 0.000 et 0.000 er 0.000] ------- [8:0 5:0 32 0] [81] 0 0
D 3.846428571 _8_ RTR  IFQ 17 cbr 1020 [0 0 0 0] [energy 99.998265 ei 0.002 es 0.000 et 0.000 er 0.000] ------- [8:0 5:0 30 0] [17] 0 0
s 3.864285714 _8_ AGT  --- 82 cbr 1000 [0 0 0 0] [energy 99.998265 ei 0.002 es 0.000 et 0.000 er 0.000] ------- [8:0 5:0 32 0] [82] 0 0
r 3.864285714 _8_ RTR  --- 82 cbr 1000 [0 0 0 0] [energy 99.998265 ei 0.002 es 0.000 et 0.000 er 0.000] ------- [8:0 5:0 32 0] [82] 0 0
D 3.864285714 _8_ RTR  IFQ 18 cbr 1020 [0 0 0 0] [energy 99.998265 ei 0.002 es 0.000 et 0.000 er 0.000] ------- [8:0 5:0 30 0] [18] 0 0
s 3.882142857 _8_ AGT  --- 83 cbr 1000 [0 0 0 0] [energy 99.998265 ei 0.002 es 0.000 et 0.000 er 0.000] ------- [8:0 5:0 32 0] [83] 0 0
r 3.882142857 _8_ RTR  --- 83 cbr 1000 [0 0 0 0] [energy 99.998265 ei 0.002 es 0.000 et 0.000 er 0.000] ------- [8:0 5:0 32 0] [83] 0 0
D 3.882142857 _8_ RTR  IFQ 19 cbr 1020 [0 0 0 0] [energy 99.998265 ei 0.002 es 0.000 et 0.000 er 0.000] ------- [8:0 5:0 30 0] [19] 0 0
s 3.900000000 _8_ AGT  --- 84 cbr 1000 [0 0 0 0] [energy 99.998265 ei 0.002 es 0.000 et 0.000 er 0.000] ------- [8:0 5:0 32 0] [84] 0 0
r 3.900000000 _8_ RTR  --- 84 cbr 1000 [0 0 0 0] [energy 99.998265 ei 0.002 es 0.000 et 0.000 er 0.000] ------- [8:0 5:0 32 0] [84] 0 0
D 3.900000000 _8_ RTR  IFQ 20 cbr 1020 [0 0 0 0] [energy 99.998265 ei 0.002 es 0.000 et 0.000 er 0.000] ------- [8:0 5:0 30 0] [20] 0 0
s 3.917857143 _8_ AGT  --- 85 cbr 1000 [0 0 0 0] [energy 99.998265 ei 0.002 es 0.000 et 0.000 er 0.000] ------- [8:0 5:0 32 0] [85] 0 0
r 3.917857143 _8_ RTR  --- 85 cbr 1000 [0 0 0 0] [energy 99.998265 ei 0.002 es 0.000 et 0.000 er 0.000] ------- [8:0 5:0 32 0] [85] 0 0
D 3.917857143 _8_ RTR  IFQ 21 cbr 1020 [0 0 0 0] [energy 99.998265 ei 0.002 es 0.000 et 0.000 er 0.000] ------- [8:0 5:0 30 0] [21] 0 0
s 3.935714286 _8_ AGT  --- 86 cbr 1000 [0 0 0 0] [energy 99.998265 ei 0.002 es 0.000 et 0.000 er 0.000] ------- [8:0 5:0 32 0] [86] 0 0
r 3.935714286 _8_ RTR  --- 86 cbr 1000 [0 0 0 0] [energy 99.998265 ei 0.002 es 0.000 et 0.000 er 0.000] ------- [8:0 5:0 32 0] [86] 0 0
D 3.935714286 _8_ RTR  IFQ 22 cbr 1020 [0 0 0 0] [energy 99.998265 ei 0.002 es 0.000 et 0.000 er 0.000] ------- [8:0 5:0 30 0] [22] 0 0
s 3.953571429 _8_ AGT  --- 87 cbr 1000 [0 0 0 0] [energy 99.998265 ei 0.002 es 0.000 et 0.000 er 0.000] ------- [8:0 5:0 32 0] [87] 0 0
r 3.953571429 _8_ RTR  --- 87 cbr 1000 [0 0 0 0] [energy 99.998265 ei 0.002 es 0.000 et 0.000 er 0.000] ------- [8:0 5:0 32 0] [87] 0 0
D 3.953571429 _8_ RTR  IFQ 23 cbr 1020 [0 0 0 0] [energy 99.998265 ei 0.002 es 0.000 et 0.000 er 0.000] ------- [8:0 5:0 30 0] [23] 0 0
s 3.971428571 _8_ AGT  --- 88 cbr 1000 [0 0 0 0] [energy 99.998265 ei 0.002 es 0.000 et 0.000 er 0.000] ------- [8:0 5:0 32 0] [88] 0 0
r 3.971428571 _8_ RTR  --- 88 cbr 1000 [0 0 0 0] [energy 99.998265 ei 0.002 es 0.000 et 0.000 er 0.000] ------- [8:0 5:0 32 0] [88] 0 0
D 3.971428571 _8_ RTR  IFQ 24 cbr 1020 [0 0 0 0] [energy 99.998265 ei 0.002 es 0.000 et 0.000 er 0.000] ------- [8:0 5:0 30 0] [24] 0 0
s 3.989285714 _8_ AGT  --- 89 cbr 1000 [0 0 0 0] [energy 99.998265 ei 0.002 es 0.000 et 0.000 er 0.000] ------- [8:0 5:0 32 0] [89] 0 0
r 3.989285714 _8_ RTR  --- 89 cbr 1000 [0 0 0 0] [energy 99.998265 ei 0.002 es 0.000 et 0.000 er 0.000] ------- [8:0 5:0 32 0] [89] 0 0
D 3.989285714 _8_ RTR  IFQ 25 cbr 1020 [0 0 0 0] [energy 99.998265 ei 0.002 es 0.000 et 0.000 er 0.000] ------- [8:0 5:0 30 0] [25] 0 0
s 4.000000000 _0_ AGT  --- 90 cbr 1000 [0 0 0 0] [energy 100.000000 ei 0.000 es 0.000 et 0.000 er 0.000] ------- [0:0 3:0 32 0] [0] 0 0
r 4.000000000 _0_ RTR  --- 90 cbr 1000 [0 0 0 0] [energy 100.000000 ei 0.000 es 0.000 et 0.000 er 0.000] ------- [0:0 3:0 32 0] [0] 0 0
s 4.000000000 _0_ AGT  --- 91 cbr 1000 [0 0 0 0] [energy 100.000000 ei 0.000 es 0.000 et 0.000 er 0.000] ------- [0:1 5:1 32 0] [0] 0 0
r 4.000000000 _0_ RTR  --- 91 cbr 1000 [0 0 0 0] [energy 100.000000 ei 0.000 es 0.000 et 0.000 er 0.000] ------- [0:1 5:1 32 0] [0] 0 0
s 4.000000000 _2_ AGT  --- 92 cbr 1000 [0 0 0 0] [energy 100.000000 ei 0.000 es 0.000 et 0.000 er 0.000] ------- [2:0 6:0 32 0] [0] 0 0
r 4.000000000 _2_ RTR  --- 92 cbr 1000 [0 0 0 0] [energy 100.000000 ei 0.000 es 0.000 et 0.000 er 0.000] ------- [2:0 6:0 32 0] [0] 0 0
s 4.000000000 _2_ AGT  --- 93 cbr 1000 [0 0 0 0] [energy 100.000000 ei 0.000 es 0.000 et 0.000 er 0.000] ------- [2:1 7:0 32 0] [0] 0 0
r 4.000000000 _2_ RTR  --- 93 cbr 1000 [0 0 0 0] [energy 100.000000 ei 0.000 es 0.000 et 0.000 er 0.000] ------- [2:1 7:0 32 0] [0] 0 0
s 4.000000000 _2_ AGT  --- 94 cbr 1000 [0 0 0 0] [energy 100.000000 ei 0.000 es 0.000 et 0.000 er 0.000] ------- [2:2 1:0 32 0] [0] 0 0