v 0 eval {set sim_annotation {MOBILE NODE MOVEMENTS}}
s 0.000000000 _0_ RTR  --- 0 AODV 44 [0 0 0 0] [energy 100.000000 ei 0.000 es 0.000 et 0.000 er 0.000] ------- [0:255 -1:255 1 0] [0x1 1 [0 2] 4.000000] (HELLO)
s 0.000000000 _1_ RTR  --- 0 AODV 44 [0 0 0 0] [energy 100.000000 ei 0.000 es 0.000 et 0.000 er 0.000] ------- [1:255 -1:255 1 0] [0x1 1 [1 2] 4.000000] (HELLO)
s 0.000000000 _2_ RTR  --- 0 AODV 44 [0 0 0 0] [energy 100.000000 ei 0.000 es 0.000 et 0.000 er 0.000] ------- [2:255 -1:255 1 0] [0x1 1 [2 2] 4.000000] (HELLO)
s 0.000000000 _3_ RTR  --- 0 AODV 44 [0 0 0 0] [energy 100.000000 ei 0.000 es 0.000 et 0.000 er 0.000] ------- [3:255 -1:255 1 0] [0x1 1 [3 2] 4.000000] (HELLO)
s 0.000000000 _4_ RTR  --- 0 AODV 44 [0 0 0 0] [energy 100.000000 ei 0.000 es 0.000 et 0.000 er 0.000] ------- [4:255 -1:255 1 0] [0x1 1 [4 2] 4.000000] (HELLO)
s 0.000000000 _5_ RTR  --- 0 AODV 44 [0 0 0 0] [energy 100.000000 ei 0.000 es 0.000 et 0.000 er 0.000] ------- [5:255 -1:255 1 0] [0x1 1 [5 2] 4.000000] (HELLO)
s 0.000000000 _6_ RTR  --- 0 AODV 44 [0 0 0 0] [energy 100.000000 ei 0.000 es 0.000 et 0.000 er 0.000] ------- [6:255 -1:255 1 0] [0x1 1 [6 2] 4.000000] (HELLO)
s 0.000000000 _7_ RTR  --- 0 AODV 44 [0 0 0 0] [energy 100.000000 ei 0.000 es 0.000 et 0.000 er 0.000] ------- [7:255 -1:255 1 0] [0x1 1 [7 2] 4.000000] (HELLO)
s 0.000000000 _8_ RTR  --- 0 AODV 44 [0 0 0 0] [energy 100.000000 ei 0.000 es 0.000 et 0.000 er 0.000] ------- [8:255 -1:255 1 0] [0x1 1 [8 2] 4.000000] (HELLO)
s 0.000000000 _9_ RTR  --- 0 AODV 44 [0 0 0 0] [energy 100.000000 ei 0.000 es 0.000 et 0.000 er 0.000] ------- [9:255 -1:255 1 0] [0x1 1 [9 2] 4.000000] (HELLO)
s 0.000000000 _10_ RTR  --- 0 AODV 44 [0 0 0 0] [energy 100.000000 ei 0.000 es 0.000 et 0.000 er 0.000] ------- [10:255 -1:255 1 0] [0x1 1 [10 2] 4.000000] (HELLO)
s 0.000000000 _11_ RTR  --- 0 AODV 44 [0 0 0 0] [energy 100.000000 ei 0.000 es 0.000 et 0.000 er 0.000] ------- [11:255 -1:255 1 0] [0x1 1 [11 2] 4.000000] (HELLO)
s 0.000000000 _12_ RTR  --- 0 AODV 44 [0 0 0 0] [energy 100.000000 ei 0.000 es 0.000 et 0.000 er 0.000] ------- [12:255 -1:255 1 0] [0x1 1 [12 2] 4.000000] (HELLO)
s 0.000000000 _13_ RTR  --- 0 AODV 44 [0 0 0 0] [energy 100.000000 ei 0.000 es 0.000 et 0.000 er 0.000] ------- [13:255 -1:255 1 0] [0x1 1 [13 2] 4.000000] (HELLO)
s 0.000000000 _14_ RTR  --- 0 AODV 44 [0 0 0 0] [energy 100.000000 ei 0.000 es 0.000 et 0.000 er 0.000] ------- [14:255 -1:255 1 0] [0x1 1 [14 2] 4.000000] (HELLO)
s 0.000000000 _15_ RTR  --- 0 AODV 44 [0 0 0 0] [energy 100.000000 ei 0.000 es 0.000 et 0.000 er 0.000] ------- [15:255 -1:255 1 0] [0x1 1 [15 2] 4.000000] (HELLO)
s 0.000000000 _16_ RTR  --- 0 AODV 44 [0 0 0 0] [energy 100.000000 ei 0.000 es 0.000 et 0.000 er 0.000] ------- [16:255 -1:255 1 0] [0x1 1 [16 2] 4.000000] (HELLO)
s 0.000000000 _17_ RTR  --- 0 AODV 44 [0 0 0 0] [energy 100.000000 ei 0.000 es 0.000 et 0.000 er 0.000] ------- [17:255 -1:255 1 0] [0x1 1 [17 2] 4.000000] (HELLO)
s 0.000000000 _18_ RTR  --- 0 AODV 44 [0 0 0 0] [energy 100.000000 ei 0.000 es 0.000 et 0.000 er 0.000] ------- [18:255 -1:255 1 0] [0x1 1 [18 2] 4.000000] (HELLO)
s 0.000000000 _19_ RTR  --- 0 AODV 44 [0 0 0 0] [energy 100.000000 ei 0.000 es 0.000 et 0.000 er 0.000] ------- [19:255 -1:255 1 0] [0x1 1 [19 2] 4.000000] (HELLO)
s 0.000000000 _20_ RTR  --- 0 AODV 44 [0 0 0 0] [energy 100.000000 ei 0.000 es 0.000 et 0.000 er 0.000] ------- [20:255 -1:255 1 0] [0x1 1 [20 2] 4.000000] (HELLO)
s 0.000000000 _21_ RTR  --- 0 AODV 44 [0 0 0 0] [energy 100.000000 ei 0.000 es 0.000 et 0.000 er 0.000] ------- [21:255 -1:255 1 0] [0x1 1 [21 2] 4.000000] (HELLO)
s 0.000000000 _22_ RTR  --- 0 AODV 44 [0 0 0 0] [energy 100.000000 ei 0.000 es 0.000 et 0.000 er 0.000] ------- [22:255 -1:255 1 0] [0x1 1 [22 2] 4.000000] (HELLO)
s 0.000000000 _23_ RTR  --- 0 AODV 44 [0 0 0 0] [energy 100.000000 ei 0.000 es 0.000 et 0.000 er 0.000] ------- [23:255 -1:255 1 0] [0x1 1 [23 2] 4.000000] (HELLO)
s 0.000000000 _24_ RTR  --- 0 AODV 44 [0 0 0 0] [energy 100.000000 ei 0.000 es 0.000 et 0.000 er 0.000] ------- [24:255 -1:255 1 0] [0x1 1 [24 2] 4.000000] (HELLO)
s 0.000000000 _25_ RTR  --- 0 AODV 44 [0 0 0 0] [energy 100.000000 ei 0.000 es 0.000 et 0.000 er 0.000] ------- [25:255 -1:255 1 0] [0x1 1 [25 2] 4.000000] (HELLO)
s 0.000000000 _26_ RTR  --- 0 AODV 44 [0 0 0 0] [energy 100.000000 ei 0.000 es 0.000 et 0.000 er 0.000] ------- [26:255 -1:255 1 0] [0x1 1 [26 2] 4.000000] (HELLO)
s 0.000000000 _27_ RTR  --- 0 AODV 44 [0 0 0 0] [energy 100.000000 ei 0.000 es 0.000 et 0.000 er 0.000] ------- [27:255 -1:255 1 0] [0x1 1 [27 2] 4.000000] (HELLO)
s 0.000000000 _28_ RTR  --- 0 AODV 44 [0 0 0 0] [energy 100.000000 ei 0.000 es 0.000 et 0.000 er 0.000] ------- [28:255 -1:255 1 0] [0x1 1 [28 2] 4.000000] (HELLO)
s 0.000000000 _29_ RTR  --- 0 AODV 44 [0 0 0 0] [energy 100.000000 ei 0.000 es 0.000 et 0.000 er 0.000] ------- [29:255 -1:255 1 0] [0x1 1 [29 2] 4.000000] (HELLO)
s 0.000000000 _30_ RTR  --- 0 AODV 44 [0 0 0 0] [energy 100.000000 ei 0.000 es 0.000 et 0.000 er 0.000] ------- [30:255 -1:255 1 0] [0x1 1 [30 2] 4.000000] (HELLO)
s 0.000000000 _31_ RTR  --- 0 AODV 44 [0 0 0 0] [energy 100.000000 ei 0.000 es 0.000 et 0.000 er 0.000] ------- [31:255 -1:255 1 0] [0x1 1 [31 2] 4.000000] (HELLO)
s 0.000000000 _32_ RTR  --- 0 AODV 44 [0 0 0 0] [energy 100.000000 ei 0.000 es 0.000 et 0.000 er 0.000] ------- [32:255 -1:255 1 0] [0x1 1 [32 2] 4.000000] (HELLO)
s 0.000000000 _33_ RTR  --- 0 AODV 44 [0 0 0 0] [energy 100.000000 ei 0.000 es 0.000 et 0.000 er 0.000] ------- [33:255 -1:255 1 0] [0x1 1 [33 2] 4.000000] (HELLO)
s 0.000000000 _34_ RTR  --- 0 AODV 44 [0 0 0 0] [energy 100.000000 ei 0.000 es 0.000 et 0.000 er 0.000] ------- [34:255 -1:255 1 0] [0x1 1 [34 2] 4.000000] (HELLO)
s 0.000000000 _35_ RTR  --- 0 AODV 44 [0 0 0 0] [energy 100.000000 ei 0.000 es 0.000 et 0.000 er 0.000] ------- [35:255 -1:255 1 0] [0x1 1 [35 2] 4.000000] (HELLO)
s 0.000000000 _36_ RTR  --- 0 AODV 44 [0 0 0 0] [energy 100.000000 ei 0.000 es 0.000 et 0.000 er 0.000] ------- [36:255 -1:255 1 0] [0x1 1 [36 2] 4.000000] (HELLO)
s 0.000000000 _37_ RTR  --- 0 AODV 44 [0 0 0 0] [energy 100.000000 ei 0.000 es 0.000 et 0.000 er 0.000] ------- [37:255 -1:255 1 0] [0x1 1 [37 2] 4.000000] (HELLO)
s 0.000000000 _38_ RTR  --- 0 AODV 44 [0 0 0 0] [energy 100.000000 ei 0.000 es 0.000 et 0.000 er 0.000] ------- [38:255 -1:255 1 0] [0x1 1 [38 2] 4.000000] (HELLO)
s 0.000000000 _39_ RTR  --- 0 AODV 44 [0 0 0 0] [energy 100.000000 ei 0.000 es 0.000 et 0.000 er 0.000] ------- [39:255 -1:255 1 0] [0x1 1 [39 2] 4.000000] (HELLO)
s 0.000000000 _40_ RTR  --- 0 AODV 44 [0 0 0 0] [energy 100.000000 ei 0.000 es 0.000 et 0.000 er 0.000] ------- [40:255 -1:255 1 0] [0x1 1 [40 2] 4.000000] (HELLO)
s 0.000000000 _41_ RTR  --- 0 AODV 44 [0 0 0 0] [energy 100.000000 ei 0.000 es 0.000 et 0.000 er 0.000] ------- [41:255 -1:255 1 0] [0x1 1 [41 2] 4.000000] (HELLO)
s 0.000000000 _42_ RTR  --- 0 AODV 44 [0 0 0 0] [energy 100.000000 ei 0.000 es 0.000 et 0.000 er 0.000] ------- [42:255 -1:255 1 0] [0x1 1 [42 2] 4.000000] (HELLO)
s 0.000000000 _43_ RTR  --- 0 AODV 44 [0 0 0 0] [energy 100.000000 ei 0.000 es 0.000 et 0.000 er 0.000] ------- [43:255 -1:255 1 0] [0x1 1 [43 2] 4.000000] (HELLO)
s 0.000000000 _44_ RTR  --- 0 AODV 44 [0 0 0 0] [energy 100.000000 ei 0.000 es 0.000 et 0.000 er 0.000] ------- [44:255 -1:255 1 0] [0x1 1 [44 2] 4.000000] (HELLO)
s 0.000000000 _45_ RTR  --- 0 AODV 44 [0 0 0 0] [energy 100.000000 ei 0.000 es 0.000 et 0.000 er 0.000] ------- [45:255 -1:255 1 0] [0x1 1 [45 2] 4.000000] (HELLO)
s 0.000000000 _46_ RTR  --- 0 AODV 44 [0 0 0 0] [energy 100.000000 ei 0.000 es 0.000 et 0.000 er 0.000] ------- [46:255 -1:255 1 0] [0x1 1 [46 2] 4.000000] (HELLO)
s 0.000000000 _47_ RTR  --- 0 AODV 44 [0 0 0 0] [energy 100.000000 ei 0.000 es 0.000 et 0.000 er 0.000] ------- [47:255 -1:255 1 0] [0x1 1 [47 2] 4.000000] (HELLO)
s 0.000000000 _48_ RTR  --- 0 AODV 44 [0 0 0 0] [energy 100.000000 ei 0.000 es 0.000 et 0.000 er 0.000] ------- [48:255 -1:255 1 0] [0x1 1 [48 2] 4.000000] (HELLO)
s 0.000000000 _49_ RTR  --- 0 AODV 44 [0 0 0 0] [energy 100.000000 ei 0.000 es 0.000 et 0.000 er 0.000] ------- [49:255 -1:255 1 0] [0x1 1 [49 2] 4.000000] (HELLO)
s 0.000000000 _50_ RTR  --- 0 AODV 44 [0 0 0 0] [energy 100.000000 ei 0.000 es 0.000 et 0.000 er 0.000] ------- [50:255 -1:255 1 0] [0x1 1 [50 2] 4.000000] (HELLO)
s 0.000000000 _51_ RTR  --- 0 AODV 44 [0 0 0 0] [energy 100.000000 ei 0.000 es 0.000 et 0.000 er 0.000] ------- [51:255 -1:255 1 0] [0x1 1 [51 2] 4.000000] (HELLO)
s 0.000000000 _52_ RTR  --- 0 AODV 44 [0 0 0 0] [energy 100.000000 ei 0.000 es 0.000 et 0.000 er 0.000] ------- [52:255 -1:255 1 0] [0x1 1 [52 2] 4.000000] (HELLO)
s 0.000000000 _53_ RTR  --- 0 AODV 44 [0 0 0 0] [energy 100.000000 ei 0.000 es 0.000 et 0.000 er 0.000] ------- [53:255 -1:255 1 0] [0x1 1 [53 2] 4.000000] (HELLO)
s 0.000000000 _54_ RTR  --- 0 AODV 44 [0 0 0 0] [energy 100.000000 ei 0.000 es 0.000 et 0.000 er 0.000] ------- [54:255 -1:255 1 0] [0x1 1 [54 2] 4.000000] (HELLO)
s 0.000000000 _55_ RTR  --- 0 AODV 44 [0 0 0 0] [energy 100.000000 ei 0.000 es 0.000 et 0.000 er 0.000] ------- [55:255 -1:255 1 0] [0x1 1 [55 2] 4.000000] (HELLO)
s 0.000000000 _56_ RTR  --- 0 AODV 44 [0 0 0 0] [energy 100.000000 ei 0.000 es 0.000 et 0.000 er 0.000] ------- [56:255 -1:255 1 0] [0x1 1 [56 2] 4.000000] (HELLO)
s 0.000000000 _57_ RTR  --- 0 AODV 44 [0 0 0 0] [energy 100.000000 ei 0.000 es 0.000 et 0.000 er 0.000] ------- [57:255 -1:255 1 0] [0x1 1 [57 2] 4.000000] (HELLO)
s 0.000000000 _58_ RTR  --- 0 AODV 44 [0 0 0 0] [energy 100.000000 ei 0.000 es 0.000 et 0.000 er 0.000] ------- [58:255 -1:255 1 0] [0x1 1 [58 2] 4.000000] (HELLO)
s 0.000000000 _59_ RTR  --- 0 AODV 44 [0 0 0 0] [energy 100.000000 ei 0.000 es 0.000 et 0.000 er 0.000] ------- [59:255 -1:255 1 0] [0x1 1 [59 2] 4.000000] (HELLO)
s 0.000000000 _60_ RTR  --- 0 AODV 44 [0 0 0 0] [energy 100.000000 ei 0.000 es 0.000 et 0.000 er 0.000] ------- [60:255 -1:255 1 0] [0x1 1 [60 2] 4.000000] (HELLO)
s 0.000000000 _61_ RTR  --- 0 AODV 44 [0 0 0 0] [energy 100.000000 ei 0.000 es 0.000 et 0.000 er 0.000] ------- [61:255 -1:255 1 0] [0x1 1 [61 2] 4.000000] (HELLO)
s 0.000000000 _62_ RTR  --- 0 AODV 44 [0 0 0 0] [energy 100.000000 ei 0.000 es 0.000 et 0.000 er 0.000] ------- [62:255 -1:255 1 0] [0x1 1 [62 2] 4.000000] (HELLO)
s 0.000000000 _63_ RTR  --- 0 AODV 44 [0 0 0 0] [energy 100.000000 ei 0.000 es 0.000 et 0.000 er 0.000] ------- [63:255 -1:255 1 0] [0x1 1 [63 2] 4.000000] (HELLO)
s 0.000000000 _64_ RTR  --- 0 AODV 44 [0 0 0 0] [energy 100.000000 ei 0.000 es 0.000 et 0.000 er 0.000] ------- [64:255 -1:255 1 0] [0x1 1 [64 2] 4.000000] (HELLO)
s 0.000000000 _65_ RTR  --- 0 AODV 44 [0 0 0 0] [energy 100.000000 ei 0.000 es 0.000 et 0.000 er 0.000] ------- [65:255 -1:255 1 0] [0x1 1 [65 2] 4.000000] (HELLO)
s 0.000000000 _66_ RTR  --- 0 AODV 44 [0 0 0 0] [energy 100.000000 ei 0.000 es 0.000 et 0.000 er 0.000] ------- [66:255 -1:255 1 0] [0x1 1 [66 2] 4.000000] (HELLO)
s 0.000000000 _67_ RTR  --- 0 AODV 44 [0 0 0 0] [energy 100.000000 ei 0.000 es 0.000 et 0.000 er 0.000] ------- [67:255 -1:255 1 0] [0x1 1 [67 2] 4.000000] (HELLO)
s 0.000000000 _68_ RTR  --- 0 AODV 44 [0 0 0 0] [energy 100.000000 ei 0.000 es 0.000 et 0.000 er 0.000] ------- [68:255 -1:255 1 0] [0x1 1 [68 2] 4.000000] (HELLO)
s 0.000000000 _69_ RTR  --- 0 AODV 44 [0 0 0 0] [energy 100.000000 ei 0.000 es 0.000 et 0.000 er 0.000] ------- [69:255 -1:255 1 0] [0x1 1 [69 2] 4.000000] (HELLO)
s 0.000000000 _70_ RTR  --- 0 AODV 44 [0 0 0 0] [energy 100.000000 ei 0.000 es 0.000 et 0.000 er 0.000] ------- [70:255 -1:255 1 0] [0x1 1 [70 2] 4.000000] (HELLO)
s 0.000000000 _71_ RTR  --- 0 AODV 44 [0 0 0 0] [energy 100.000000 ei 0.000 es 0.000 et 0.000 er 0.000] ------- [71:255 -1:255 1 0] [0x1 1 [71 2] 4.000000] (HELLO)
s 0.000000000 _72_ RTR  --- 0 AODV 44 [0 0 0 0] [energy 100.000000 ei 0.000 es 0.000 et 0.000 er 0.000] ------- [72:255 -1:255 1 0] [0x1 1 [72 2] 4.000000] (HELLO)
s 0.000000000 _73_ RTR  --- 0 AODV 44 [0 0 0 0] [energy 100.000000 ei 0.000 es 0.000 et 0.000 er 0.000] ------- [73:255 -1:255 1 0] [0x1 1 [73 2] 4.000000] (HELLO)
N -t 0.000075 -n 23 -e 99.999971
N -t 0.000075 -n 72 -e 99.999971
N -t 0.000075 -n 58 -e 99.999971
N -t 0.000075 -n 45 -e 99.999971
N -t 0.000095 -n 53 -e 99.999971
N -t 0.000095 -n 51 -e 99.999971
N -t 0.000095 -n 42 -e 99.999971
N -t 0.000095 -n 15 -e 99.999971
N -t 0.000095 -n 45 -e 99.999970
N -t 0.000095 -n 67 -e 99.999971
N -t 0.000135 -n 61 -e 99.999971
N -t 0.000135 -n 63 -e 99.999971
N -t 0.000155 -n 69 -e 99.999971
N -t 0.000155 -n 30 -e 99.999971
N -t 0.000155 -n 39 -e 99.999971
N -t 0.000155 -n 59 -e 99.999971
N -t 0.000155 -n 57 -e 99.999971
N -t 0.000155 -n 47 -e 99.999971
N -t 0.000235 -n 49 -e 99.999971
N -t 0.000255 -n 27 -e 99.999971
N -t 0.000255 -n 24 -e 99.999971
N -t 0.000255 -n 43 -e 99.999971
N -t 0.000255 -n 26 -e 99.999971
N -t 0.000255 -n 45 -e 99.999965
N -t 0.000255 -n 48 -e 99.999971
N -t 0.000255 -n 25 -e 99.999971
N -t 0.000255 -n 47 -e 99.999968
N -t 0.000295 -n 62 -e 99.999971
N -t 0.000295 -n 34 -e 99.999971
N -t 0.000295 -n 44 -e 99.999971
N -t 0.000295 -n 59 -e 99.999966
N -t 0.000335 -n 21 -e 99.999971
N -t 0.000335 -n 49 -e 99.999968
N -t 0.000335 -n 7 -e 99.999971
N -t 0.000355 -n 36 -e 99.999971
N -t 0.000355 -n 45 -e 99.999961
N -t 0.000355 -n 47 -e 99.999964
N -t 0.000355 -n 42 -e 99.999962
N -t 0.000455 -n 18 -e 99.999971
N -t 0.000455 -n 30 -e 99.999961
N -t 0.000495 -n 51 -e 99.999957
N -t 0.000635 -n 58 -e 99.999951
N -t 0.000635 -n 57 -e 99.999954
N -t 0.000635 -n 49 -e 99.999957
N -t 0.000655 -n 44 -e 99.999958
r 0.000916171 _23_ RTR  --- 0 AODV 44 [0 ffffffff 29 800] [energy 99.999971 ei 0.000 es 0.000 et 0.000 er 0.000] ------- [41:255 -1:255 1 0] [0x1 1 [41 2] 4.000000] (HELLO)
r 0.000916206 _72_ RTR  --- 0 AODV 44 [0 ffffffff 47 800] [energy 99.999971 ei 0.000 es 0.000 et 0.000 er 0.000] ------- [71:255 -1:255 1 0] [0x1 1 [71 2] 4.000000] (HELLO)
r 0.000936062 _53_ RTR  --- 0 AODV 44 [0 ffffffff 3c 800] [energy 99.999971 ei 0.000 es 0.000 et 0.000 er 0.000] ------- [60:255 -1:255 1 0] [0x1 1 [60 2] 4.000000] (HELLO)
r 0.000936294 _15_ RTR  --- 0 AODV 44 [0 ffffffff 10 800] [energy 99.999971 ei 0.000 es 0.000 et 0.000 er 0.000] ------- [16:255 -1:255 1 0] [0x1 1 [16 2] 4.000000] (HELLO)
r 0.000996095 _69_ RTR  --- 0 AODV 44 [0 ffffffff 32 800] [energy 99.999971 ei 0.000 es 0.000 et 0.000 er 0.000] ------- [50:255 -1:255 1 0] [0x1 1 [50 2] 4.000000] (HELLO)
r 0.000996245 _39_ RTR  --- 0 AODV 44 [0 ffffffff 20 800] [energy 99.999971 ei 0.000 es 0.000 et 0.000 er 0.000] ------- [32:255 -1:255 1 0] [0x1 1 [32 2] 4.000000] (HELLO)
N -t 0.001001 -n 41 -e 99.999946
N -t 0.001021 -n 60 -e 99.999946
N -t 0.001021 -n 51 -e 99.999938
r 0.001096123 _27_ RTR  --- 0 AODV 44 [0 ffffffff 1f 800] [energy 99.999971 ei 0.000 es 0.000 et 0.000 er 0.000] ------- [31:255 -1:255 1 0] [0x1 1 [31 2] 4.000000] (HELLO)
r 0.001096185 _24_ RTR  --- 0 AODV 44 [0 ffffffff 40 800] [energy 99.999971 ei 0.000 es 0.000 et 0.000 er 0.000] ------- [64:255 -1:255 1 0] [0x1 1 [64 2] 4.000000] (HELLO)
r 0.001096186 _43_ RTR  --- 0 AODV 44 [0 ffffffff 40 800] [energy 99.999971 ei 0.000 es 0.000 et 0.000 er 0.000] ------- [64:255 -1:255 1 0] [0x1 1 [64 2] 4.000000] (HELLO)
r 0.001096194 _26_ RTR  --- 0 AODV 44 [0 ffffffff 1f 800] [energy 99.999971 ei 0.000 es 0.000 et 0.000 er 0.000] ------- [31:255 -1:255 1 0] [0x1 1 [31 2] 4.000000] (HELLO)
r 0.001096275 _48_ RTR  --- 0 AODV 44 [0 ffffffff 40 800] [energy 99.999971 ei 0.000 es 0.000 et 0.000 er 0.000] ------- [64:255 -1:255 1 0] [0x1 1 [64 2] 4.000000] (HELLO)
r 0.001096305 _25_ RTR  --- 0 AODV 44 [0 ffffffff 1f 800] [energy 99.999971 ei 0.000 es 0.000 et 0.000 er 0.000] ------- [31:255 -1:255 1 0] [0x1 1 [31 2] 4.000000] (HELLO)
N -t 0.001122 -n 16 -e 99.999945
r 0.001136118 _62_ RTR  --- 0 AODV 44 [0 ffffffff 42 800] [energy 99.999971 ei 0.000 es 0.000 et 0.000 er 0.000] ------- [66:255 -1:255 1 0] [0x1 1 [66 2] 4.000000] (HELLO)
r 0.001136255 _34_ RTR  --- 0 AODV 44 [0 ffffffff 25 800] [energy 99.999971 ei 0.000 es 0.000 et 0.000 er 0.000] ------- [37:255 -1:255 1 0] [0x1 1 [37 2] 4.000000] (HELLO)
r 0.001176218 _21_ RTR  --- 0 AODV 44 [0 ffffffff 36 800] [energy 99.999971 ei 0.000 es 0.000 et 0.000 er 0.000] ------- [54:255 -1:255 1 0] [0x1 1 [54 2] 4.000000] (HELLO)
N -t 0.001181 -n 24 -e 99.999942
N -t 0.001181 -n 64 -e 99.999945
N -t 0.001181 -n 31 -e 99.999945
N -t 0.001181 -n 48 -e 99.999942
N -t 0.001181 -n 27 -e 99.999942
N -t 0.001182 -n 45 -e 99.999932
r 0.001196220 _36_ RTR  --- 0 AODV 44 [0 ffffffff 1d 800] [energy 99.999971 ei 0.000 es 0.000 et 0.000 er 0.000] ------- [29:255 -1:255 1 0] [0x1 1 [29 2] 4.000000] (HELLO)
N -t 0.001241 -n 50 -e 99.999945
N -t 0.001241 -n 57 -e 99.999933
N -t 0.001261 -n 27 -e 99.999939
N -t 0.001262 -n 47 -e 99.999935
N -t 0.001262 -n 31 -e 99.999943
N -t 0.001262 -n 30 -e 99.999932
r 0.001296000 _18_ RTR  --- 0 AODV 44 [0 ffffffff 2e 800] [energy 99.999971 ei 0.000 es 0.000 et 0.000 er 0.000] ------- [46:255 -1:255 1 0] [0x1 1 [46 2] 4.000000] (HELLO)
N -t 0.001361 -n 46 -e 99.999945
N -t 0.001361 -n 30 -e 99.999929
N -t 0.001385 -n 63 -e 99.999942
N -t 0.001386 -n 59 -e 99.999937
N -t 0.001386 -n 68 -e 99.999945
N -t 0.001401 -n 66 -e 99.999945
N -t 0.001401 -n 44 -e 99.999932
N -t 0.001401 -n 59 -e 99.999937
N -t 0.001401 -n 32 -e 99.999945
N -t 0.001402 -n 36 -e 99.999942
N -t 0.001402 -n 37 -e 99.999945
N -t 0.001461 -n 71 -e 99.999945
N -t 0.001486 -n 60 -e 99.999929
N -t 0.001521 -n 54 -e 99.999945
N -t 0.001626 -n 12 -e 99.999945
r 0.001842341 _41_ RTR  --- 0 AODV 44 [0 ffffffff 17 800] [energy 99.999946 ei 0.000 es 0.000 et 0.000 er 0.000] ------- [23:255 -1:255 1 0] [0x1 1 [23 2] 4.000000] (HELLO)
r 0.001862124 _60_ RTR  --- 0 AODV 44 [0 ffffffff 35 800] [energy 99.999929 ei 0.000 es 0.000 et 0.000 er 0.000] ------- [53:255 -1:255 1 0] [0x1 1 [53 2] 4.000000] (HELLO)
N -t 0.001906 -n 38 -e 99.999945
N -t 0.001906 -n 40 -e 99.999945
r 0.001962589 _16_ RTR  --- 0 AODV 44 [0 ffffffff f 800] [energy 99.999945 ei 0.000 es 0.000 et 0.000 er 0.000] ------- [15:255 -1:255 1 0] [0x1 1 [15 2] 4.000000] (HELLO)
r 0.002022366 _24_ RTR  --- 0 AODV 44 [0 ffffffff 2b 800] [energy 99.999942 ei 0.000 es 0.000 et 0.000 er 0.000] ------- [43:255 -1:255 1 0] [0x1 1 [43 2] 4.000000] (HELLO)
r 0.002022372 _64_ RTR  --- 0 AODV 44 [0 ffffffff 2b 800] [energy 99.999945 ei 0.000 es 0.000 et 0.000 er 0.000] ------- [43:255 -1:255 1 0] [0x1 1 [43 2] 4.000000] (HELLO)
r 0.002022424 _48_ RTR  --- 0 AODV 44 [0 ffffffff 2b 800] [energy 99.999942 ei 0.000 es 0.000 et 0.000 er 0.000] ------- [43:255 -1:255 1 0] [0x1 1 [43 2] 4.000000] (HELLO)
r 0.002082191 _50_ RTR  --- 0 AODV 44 [0 ffffffff 45 800] [energy 99.999945 ei 0.000 es 0.000 et 0.000 er 0.000] ------- [69:255 -1:255 1 0] [0x1 1 [69 2] 4.000000] (HELLO)
r 0.002102500 _47_ RTR  --- 0 AODV 44 [0 ffffffff 19 800] [energy 99.999935 ei 0.000 es 0.000 et 0.000 er 0.000] ------- [25:255 -1:255 1 0] [0x1 1 [25 2] 4.000000] (HELLO)
r 0.002202000 _46_ RTR  --- 0 AODV 44 [0 ffffffff 12 800] [energy 99.999945 ei 0.000 es 0.000 et 0.000 er 0.000] ------- [18:255 -1:255 1 0] [0x1 1 [18 2] 4.000000] (HELLO)
r 0.002226400 _63_ RTR  --- 0 AODV 44 [0 ffffffff 3d 800] [energy 99.999942 ei 0.000 es 0.000 et 0.000 er 0.000] ------- [61:255 -1:255 1 0] [0x1 1 [61 2] 4.000000] (HELLO)
N -t 0.002228 -n 24 -e 99.999913
N -t 0.002228 -n 43 -e 99.999916
N -t 0.002228 -n 64 -e 99.999916
r 0.002242237 _66_ RTR  --- 0 AODV 44 [0 ffffffff 3e 800] [energy 99.999945 ei 0.000 es 0.000 et 0.000 er 0.000] ------- [62:255 -1:255 1 0] [0x1 1 [62 2] 4.000000] (HELLO)
r 0.002242490 _32_ RTR  --- 0 AODV 44 [0 ffffffff 27 800] [energy 99.999945 ei 0.000 es 0.000 et 0.000 er 0.000] ------- [39:255 -1:255 1 0] [0x1 1 [39 2] 4.000000] (HELLO)
r 0.002242501 _36_ RTR  --- 0 AODV 44 [0 ffffffff 22 800] [energy 99.999942 ei 0.000 es 0.000 et 0.000 er 0.000] ------- [34:255 -1:255 1 0] [0x1 1 [34 2] 4.000000] (HELLO)
r 0.002242510 _37_ RTR  --- 0 AODV 44 [0 ffffffff 22 800] [energy 99.999945 ei 0.000 es 0.000 et 0.000 er 0.000] ------- [34:255 -1:255 1 0] [0x1 1 [34 2] 4.000000] (HELLO)
N -t 0.002248 -n 25 -e 99.999916
N -t 0.002248 -n 27 -e 99.999910
N -t 0.002248 -n 31 -e 99.999914
N -t 0.002248 -n 32 -e 99.999916
N -t 0.002248 -n 30 -e 99.999900
N -t 0.002248 -n 40 -e 99.999933
r 0.002302411 _71_ RTR  --- 0 AODV 44 [0 ffffffff 48 800] [energy 99.999945 ei 0.000 es 0.000 et 0.000 er 0.000] ------- [72:255 -1:255 1 0] [0x1 1 [72 2] 4.000000] (HELLO)
N -t 0.002306 -n 55 -e 99.999945
N -t 0.002306 -n 28 -e 99.999945
N -t 0.002306 -n 54 -e 99.999917
N -t 0.002348 -n 29 -e 99.999945
N -t 0.002348 -n 34 -e 99.999916
N -t 0.002348 -n 44 -e 99.999903
N -t 0.002451 -n 53 -e 99.999916
N -t 0.002451 -n 60 -e 99.999900
N -t 0.002452 -n 19 -e 99.999944
N -t 0.002465 -n 55 -e 99.999939
N -t 0.002465 -n 57 -e 99.999904
N -t 0.002466 -n 65 -e 99.999944
N -t 0.002531 -n 61 -e 99.999916
N -t 0.002532 -n 59 -e 99.999908
N -t 0.002532 -n 68 -e 99.999916
N -t 0.002572 -n 31 -e 99.999902
N -t 0.002572 -n 40 -e 99.999921
N -t 0.002572 -n 38 -e 99.999921
N -t 0.002572 -n 41 -e 99.999916
N -t 0.002572 -n 26 -e 99.999916
N -t 0.002572 -n 27 -e 99.999899
r 0.003068514 _24_ RTR  --- 0 AODV 44 [0 ffffffff 30 800] [energy 99.999913 ei 0.000 es 0.000 et 0.000 er 0.000] ------- [48:255 -1:255 1 0] [0x1 1 [48 2] 4.000000] (HELLO)
r 0.003068661 _43_ RTR  --- 0 AODV 44 [0 ffffffff 30 800] [energy 99.999916 ei 0.000 es 0.000 et 0.000 er 0.000] ------- [48:255 -1:255 1 0] [0x1 1 [48 2] 4.000000] (HELLO)
r 0.003068699 _64_ RTR  --- 0 AODV 44 [0 ffffffff 30 800] [energy 99.999916 ei 0.000 es 0.000 et 0.000 er 0.000] ------- [48:255 -1:255 1 0] [0x1 1 [48 2] 4.000000] (HELLO)
r 0.003088696 _25_ RTR  --- 0 AODV 44 [0 ffffffff 2f 800] [energy 99.999916 ei 0.000 es 0.000 et 0.000 er 0.000] ------- [47:255 -1:255 1 0] [0x1 1 [47 2] 4.000000] (HELLO)
r 0.003088827 _32_ RTR  --- 0 AODV 44 [0 ffffffff 2f 800] [energy 99.999916 ei 0.000 es 0.000 et 0.000 er 0.000] ------- [47:255 -1:255 1 0] [0x1 1 [47 2] 4.000000] (HELLO)
r 0.003088830 _30_ RTR  --- 0 AODV 44 [0 ffffffff 2f 800] [energy 99.999900 ei 0.000 es 0.000 et 0.000 er 0.000] ------- [47:255 -1:255 1 0] [0x1 1 [47 2] 4.000000] (HELLO)
N -t 0.003134 -n 48 -e 99.999888
N -t 0.003134 -n 43 -e 99.999888
N -t 0.003134 -n 64 -e 99.999888
r 0.003188721 _29_ RTR  --- 0 AODV 44 [0 ffffffff 24 800] [energy 99.999945 ei 0.000 es 0.000 et 0.000 er 0.000] ------- [36:255 -1:255 1 0] [0x1 1 [36 2] 4.000000] (HELLO)
r 0.003188747 _34_ RTR  --- 0 AODV 44 [0 ffffffff 24 800] [energy 99.999916 ei 0.000 es 0.000 et 0.000 er 0.000] ------- [36:255 -1:255 1 0] [0x1 1 [36 2] 4.000000] (HELLO)
r 0.003188796 _44_ RTR  --- 0 AODV 44 [0 ffffffff 24 800] [energy 99.999903 ei 0.000 es 0.000 et 0.000 er 0.000] ------- [36:255 -1:255 1 0] [0x1 1 [36 2] 4.000000] (HELLO)
r 0.003292294 _53_ RTR  --- 0 AODV 44 [0 ffffffff 33 800] [energy 99.999916 ei 0.000 es 0.000 et 0.000 er 0.000] ------- [51:255 -1:255 1 0] [0x1 1 [51 2] 4.000000] (HELLO)
r 0.003292323 _60_ RTR  --- 0 AODV 44 [0 ffffffff 33 800] [energy 99.999900 ei 0.000 es 0.000 et 0.000 er 0.000] ------- [51:255 -1:255 1 0] [0x1 1 [51 2] 4.000000] (HELLO)
r 0.003292508 _19_ RTR  --- 0 AODV 44 [0 ffffffff 33 800] [energy 99.999944 ei 0.000 es 0.000 et 0.000 er 0.000] ------- [51:255 -1:255 1 0] [0x1 1 [51 2] 4.000000] (HELLO)
r 0.003306463 _57_ RTR  --- 0 AODV 44 [0 ffffffff 3a 800] [energy 99.999904 ei 0.000 es 0.000 et 0.000 er 0.000] ------- [58:255 -1:255 1 0] [0x1 1 [58 2] 4.000000] (HELLO)
N -t 0.003314 -n 34 -e 99.999887
N -t 0.003314 -n 33 -e 99.999944
N -t 0.003314 -n 36 -e 99.999887
N -t 0.003314 -n 37 -e 99.999916
r 0.003372467 _61_ RTR  --- 0 AODV 44 [0 ffffffff 3f 800] [energy 99.999916 ei 0.000 es 0.000 et 0.000 er 0.000] ------- [63:255 -1:255 1 0] [0x1 1 [63 2] 4.000000] (HELLO)
r 0.003372677 _59_ RTR  --- 0 AODV 44 [0 ffffffff 3f 800] [energy 99.999908 ei 0.000 es 0.000 et 0.000 er 0.000] ------- [63:255 -1:255 1 0] [0x1 1 [63 2] 4.000000] (HELLO)
N -t 0.003574 -n 32 -e 99.999887
N -t 0.003574 -n 46 -e 99.999915
N -t 0.003574 -n 18 -e 99.999915
N -t 0.003574 -n 25 -e 99.999887
N -t 0.003574 -n 47 -e 99.999880
N -t 0.003632 -n 55 -e 99.999910
N -t 0.003632 -n 50 -e 99.999915
N -t 0.003632 -n 58 -e 99.999896
N -t 0.003632 -n 69 -e 99.999915
N -t 0.003818 -n 52 -e 99.999944
N -t 0.003818 -n 63 -e 99.999887
N -t 0.003818 -n 61 -e 99.999887
N -t 0.003818 -n 66 -e 99.999915
N -t 0.003818 -n 62 -e 99.999915
r 0.003974603 _48_ RTR  --- 0 AODV 44 [0 ffffffff 18 800] [energy 99.999888 ei 0.000 es 0.000 et 0.000 er 0.000] ------- [24:255 -1:255 1 0] [0x1 1 [24 2] 4.000000] (HELLO)
r 0.003974693 _43_ RTR  --- 0 AODV 44 [0 ffffffff 18 800] [energy 99.999888 ei 0.000 es 0.000 et 0.000 er 0.000] ------- [24:255 -1:255 1 0] [0x1 1 [24 2] 4.000000] (HELLO)
r 0.003974699 _64_ RTR  --- 0 AODV 44 [0 ffffffff 18 800] [energy 99.999888 ei 0.000 es 0.000 et 0.000 er 0.000] ------- [24:255 -1:255 1 0] [0x1 1 [24 2] 4.000000] (HELLO)
N -t 0.004022 -n 31 -e 99.999873
N -t 0.004022 -n 25 -e 99.999871
N -t 0.004022 -n 47 -e 99.999865
N -t 0.004022 -n 26 -e 99.999887
N -t 0.004022 -n 45 -e 99.999877
r 0.004154980 _34_ RTR  --- 0 AODV 44 [0 ffffffff 2c 800] [energy 99.999887 ei 0.000 es 0.000 et 0.000 er 0.000] ------- [44:255 -1:255 1 0] [0x1 1 [44 2] 4.000000] (HELLO)
r 0.004155070 _33_ RTR  --- 0 AODV 44 [0 ffffffff 2c 800] [energy 99.999944 ei 0.000 es 0.000 et 0.000 er 0.000] ------- [44:255 -1:255 1 0] [0x1 1 [44 2] 4.000000] (HELLO)
r 0.004155090 _36_ RTR  --- 0 AODV 44 [0 ffffffff 2c 800] [energy 99.999887 ei 0.000 es 0.000 et 0.000 er 0.000] ------- [44:255 -1:255 1 0] [0x1 1 [44 2] 4.000000] (HELLO)
r 0.004415041 _32_ RTR  --- 0 AODV 44 [0 ffffffff 1e 800] [energy 99.999887 ei 0.000 es 0.000 et 0.000 er 0.000] ------- [30:255 -1:255 1 0] [0x1 1 [30 2] 4.000000] (HELLO)
r 0.004415105 _46_ RTR  --- 0 AODV 44 [0 ffffffff 1e 800] [energy 99.999915 ei 0.000 es 0.000 et 0.000 er 0.000] ------- [30:255 -1:255 1 0] [0x1 1 [30 2] 4.000000] (HELLO)
r 0.004415105 _18_ RTR  --- 0 AODV 44 [0 ffffffff 1e 800] [energy 99.999915 ei 0.000 es 0.000 et 0.000 er 0.000] ------- [30:255 -1:255 1 0] [0x1 1 [30 2] 4.000000] (HELLO)
r 0.004472683 _55_ RTR  --- 0 AODV 44 [0 ffffffff 39 800] [energy 99.999910 ei 0.000 es 0.000 et 0.000 er 0.000] ------- [57:255 -1:255 1 0] [0x1 1 [57 2] 4.000000] (HELLO)
r 0.004472731 _50_ RTR  --- 0 AODV 44 [0 ffffffff 39 800] [energy 99.999915 ei 0.000 es 0.000 et 0.000 er 0.000] ------- [57:255 -1:255 1 0] [0x1 1 [57 2] 4.000000] (HELLO)
r 0.004472754 _58_ RTR  --- 0 AODV 44 [0 ffffffff 39 800] [energy 99.999896 ei 0.000 es 0.000 et 0.000 er 0.000] ------- [57:255 -1:255 1 0] [0x1 1 [57 2] 4.000000] (HELLO)
r 0.004472775 _69_ RTR  --- 0 AODV 44 [0 ffffffff 39 800] [energy 99.999915 ei 0.000 es 0.000 et 0.000 er 0.000] ------- [57:255 -1:255 1 0] [0x1 1 [57 2] 4.000000] (HELLO)
r 0.004658941 _52_ RTR  --- 0 AODV 44 [0 ffffffff 3b 800] [energy 99.999944 ei 0.000 es 0.000 et 0.000 er 0.000] ------- [59:255 -1:255 1 0] [0x1 1 [59 2] 4.000000] (HELLO)
r 0.004658954 _63_ RTR  --- 0 AODV 44 [0 ffffffff 3b 800] [energy 99.999887 ei 0.000 es 0.000 et 0.000 er 0.000] ------- [59:255 -1:255 1 0] [0x1 1 [59 2] 4.000000] (HELLO)
r 0.004658959 _61_ RTR  --- 0 AODV 44 [0 ffffffff 3b 800] [energy 99.999887 ei 0.000 es 0.000 et 0.000 er 0.000] ------- [59:255 -1:255 1 0] [0x1 1 [59 2] 4.000000] (HELLO)
r 0.004863000 _31_ RTR  --- 0 AODV 44 [0 ffffffff 1b 800] [energy 99.999873 ei 0.000 es 0.000 et 0.000 er 0.000] ------- [27:255 -1:255 1 0] [0x1 1 [27 2] 4.000000] (HELLO)
r 0.004863177 _26_ RTR  --- 0 AODV 44 [0 ffffffff 1b 800] [energy 99.999887 ei 0.000 es 0.000 et 0.000 er 0.000] ------- [27:255 -1:255 1 0] [0x1 1 [27 2] 4.000000] (HELLO)
M 0.20000 2 (201.00, 552.00, 0.00), (309.00, 211.00), 20.00
M 0.20000 18 (741.00, 152.00, 0.00), (159.00, 722.00), 20.00
M 0.20000 23 (1051.00, 452.00, 0.00), (880.00, 211.00), 20.00
M 0.20000 39 (941.00, 152.00, 0.00), (159.00, 722.00), 20.00
M 0.20000 49 (1304.00, 647.00, 0.00), (1020.00, 722.00), 20.00
M 0.20000 62 (1501.00, 441.00, 0.00), (159.00, 722.00), 20.00
M 0.20000 72 (1082.00, 1000.00, 0.00), (1020.00, 722.00), 20.00
M 0.25000 11 (569.00, 167.00, 0.00), (551.00, 624.00), 25.00
M 0.25000 32 (869.00, 167.00, 0.00), (551.00, 624.00), 25.00
M 0.25000 42 (1082.00, 264.00, 0.00), (551.00, 624.00), 25.00
M 0.25000 55 (1400.00, 668.00, 0.00), (551.00, 624.00), 25.00
M 0.25000 65 (1530.00, 626.00, 0.00), (551.00, 624.00), 25.00
M 0.50000 10 (519.00, 361.00, 0.00), (598.00, 728.00), 25.00
M 0.50000 31 (889.00, 361.00, 0.00), (598.00, 728.00), 25.00
M 0.50000 54 (1299.00, 546.00, 0.00), (598.00, 728.00), 25.00
M 0.75000 0 (36.00, 529.00, 0.00), (379.00, 349.00), 20.00
M 0.75000 1 (143.00, 666.00, 0.00), (556.00, 302.00), 20.00
M 0.75000 4 (230.00, 291.00, 0.00), (139.00, 63.00), 20.00
M 0.75000 5 (295.00, 419.00, 0.00), (320.00, 27.00), 20.00
M 0.75000 16 (630.00, 626.00, 0.00), (741.00, 809.00), 20.00
M 0.75000 17 (666.00, 347.00, 0.00), (437.00, 799.00), 20.00
M 0.75000 20 (761.00, 441.00, 0.00), (839.00, 444.00), 20.00
M 0.75000 21 (1236.00, 529.00, 0.00), (1000.00, 349.00), 20.00
M 0.75000 22 (797.00, 647.00, 0.00), (920.00, 302.00), 20.00
M 0.75000 25 (830.00, 291.00, 0.00), (850.00, 63.00), 20.00
M 0.75000 26 (895.00, 419.00, 0.00), (320.00, 27.00), 20.00
M 0.75000 37 (1030.00, 626.00, 0.00), (741.00, 809.00), 20.00
M 0.75000 38 (1066.00, 347.00, 0.00), (437.00, 799.00), 20.00
M 0.75000 41 (1001.00, 441.00, 0.00), (100.00, 44.00), 20.00
M 0.75000 47 (882.00, 264.00, 0.00), (741.00, 809.00), 20.00
M 0.75000 48 (21.00, 100.00, 0.00), (437.00, 799.00), 20.00
M 0.75000 60 (1341.00, 152.00, 0.00), (741.00, 809.00), 20.00
M 0.75000 61 (1482.00, 264.00, 0.00), (437.00, 799.00), 20.00
M 0.75000 64 (101.00, 80.00, 0.00), (100.00, 44.00), 20.00
M 0.75000 70 (1982.00, 364.00, 0.00), (741.00, 809.00), 20.00