v 0 eval {set sim_annotation {MOBILE NODE MOVEMENTS}}
s 0.000000000 _0_ RTR  --- 0 AODV 44 [0 0 0 0] [energy 100.000000 ei 0.000 es 0.000 et 0.000 er 0.000] ------- [0:255 -1:255 1 0] [0x1 1 [0 2] 4.000000] (HELLO)
s 0.000000000 _1_ RTR  --- 0 AODV 44 [0 0 0 0] [energy 100.000000 ei 0.000 es 0.000 et 0.000 er 0.000] ------- [1:255 -1:255 1 0] [0x1 1 [1 2] 4.000000] (HELLO)
s 0.000000000 _2_ RTR  --- 0 AODV 44 [0 0 0 0] [energy 100.000000 ei 0.000 es 0.000 et 0.000 er 0.000] ------- [2:255 -1:255 1 0] [0x1 1 [2 2] 4.000000] (HELLO)
s 0.000000000 _3_ RTR  --- 0 AODV 44 [0 0 0 0] [energy 100.000000 ei 0.000 es 0.000 et 0.000 er 0.000] ------- [3:255 -1:255 1 0] [0x1 1 [3 2] 4.000000] (HELLO)
s 0.000000000 _4_ RTR  --- 0 AODV 44 [0 0 0 0] [energy 100.000000 ei 0.000 es 0.000 et 0.000 er 0.000] ------- [4:255 -1:255 1 0] [0x1 1 [4 2] 4.000000] (HELLO)
s 0.000000000 _5_ RTR  --- 0 AODV 44 [0 0 0 0] [energy 100.000000 ei 0.000 es 0.000 et 0.000 er 0.000] ------- [5:255 -1:255 1 0] [0x1 1 [5 2] 4.000000] (HELLO)
s 0.000000000 _6_ RTR  --- 0 AODV 44 [0 0 0 0] [energy 100.000000 ei 0.000 es 0.000 et 0.000 er 0.000] ------- [6:255 -1:255 1 0] [0x1 1 [6 2] 4.000000] (HELLO)
s 0.000000000 _7_ RTR  --- 0 AODV 44 [0 0 0 0] [energy 100.000000 ei 0.000 es 0.000 et 0.000 er 0.000] ------- [7:255 -1:255 1 0] [0x1 1 [7 2] 4.000000] (HELLO)
s 0.000000000 _8_ RTR  --- 0 AODV 44 [0 0 0 0] [energy 100.000000 ei 0.000 es 0.000 et 0.000 er 0.000] ------- [8:255 -1:255 1 0] [0x1 1 [8 2] 4.000000] (HELLO)
s 0.000000000 _9_ RTR  --- 0 AODV 44 [0 0 0 0] [energy 100.000000 ei 0.000 es 0.000 et 0.000 er 0.000] ------- [9:255 -1:255 1 0] [0x1 1 [9 2] 4.000000] (HELLO)
M 0.20000 2 (201.00, 552.00, 0.00), (309.00, 211.00), 20.00
M 0.75000 0 (36.00, 529.00, 0.00), (379.00, 349.00), 20.00
M 0.75000 1 (143.00, 666.00, 0.00), (556.00, 302.00), 20.00
M 0.75000 4 (230.00, 291.00, 0.00), (139.00, 63.00), 20.00
M 0.75000 5 (295.00, 419.00, 0.00), (320.00, 27.00), 20.00
s 0.753720658 _0_ RTR  --- 0 AODV 44 [0 0 0 0] [energy 99.999974 ei 0.000 es 0.000 et 0.000 er 0.000] ------- [0:255 -1:255 1 0] [0x1 1 [0 2] 4.000000] (HELLO)
s 0.773076061 _1_ RTR  --- 0 AODV 44 [0 0 0 0] [energy 99.999974 ei 0.000 es 0.000 et 0.000 er 0.000] ------- [1:255 -1:255 1 0] [0x1 1 [1 2] 4.000000] (HELLO)
s 0.843863020 _3_ RTR  --- 0 AODV 44 [0 0 0 0] [energy 99.999974 ei 0.000 es 0.000 et 0.000 er 0.000] ------- [3:255 -1:255 1 0] [0x1 1 [3 2] 4.000000] (HELLO)
s 0.857936637 _9_ RTR  --- 0 AODV 44 [0 0 0 0] [energy 99.999974 ei 0.000 es 0.000 et 0.000 er 0.000] ------- [9:255 -1:255 1 0] [0x1 1 [9 2] 4.000000] (HELLO)
s 0.862689129 _7_ RTR  --- 0 AODV 44 [0 0 0 0] [energy 99.999974 ei 0.000 es 0.000 et 0.000 er 0.000] ------- [7:255 -1:255 1 0] [0x1 1 [7 2] 4.000000] (HELLO)
s 0.946963038 _8_ RTR  --- 0 AODV 44 [0 0 0 0] [energy 99.999974 ei 0.000 es 0.000 et 0.000 er 0.000] ------- [8:255 -1:255 1 0] [0x1 1 [8 2] 4.000000] (HELLO)
s 1.007015031 _2_ RTR  --- 0 AODV 44 [0 0 0 0] [energy 99.999974 ei 0.000 es 0.000 et 0.000 er 0.000] ------- [2:255 -1:255 1 0] [0x1 1 [2 2] 4.000000] (HELLO)
s 1.097491794 _5_ RTR  --- 0 AODV 44 [0 0 0 0] [energy 99.999974 ei 0.000 es 0.000 et 0.000 er 0.000] ------- [5:255 -1:255 1 0] [0x1 1 [5 2] 4.000000] (HELLO)
N -t 1.097847 -n 6 -e 99.999165
s 1.133697641 _4_ RTR  --- 0 AODV 44 [0 0 0 0] [energy 99.999974 ei 0.000 es 0.000 et 0.000 er 0.000] ------- [4:255 -1:255 1 0] [0x1 1 [4 2] 4.000000] (HELLO)
s 1.176445712 _6_ RTR  --- 0 AODV 44 [0 0 0 0] [energy 99.999165 ei 0.001 es 0.000 et 0.000 er 0.000] ------- [6:255 -1:255 1 0] [0x1 1 [6 2] 4.000000] (HELLO)
N -t 1.176841 -n 5 -e 99.999083
M 1.25000 3 (147.00, 403.00, 0.00), (179.00, 333.00), 20.00
M 1.25000 7 (334.00, 647.00, 0.00), (274.00, 487.00), 20.00
M 1.25000 8 (304.00, 777.00, 0.00), (494.00, 475.00), 20.00
M 1.25000 9 (412.00, 194.00, 0.00), (899.00, 757.00), 25.00
M 1.50000 6 (363.00, 335.00, 0.00), (505.00, 124.00), 20.00
s 1.723082438 _7_ RTR  --- 0 AODV 44 [0 0 0 0] [energy 99.999335 ei 0.001 es 0.000 et 0.000 er 0.000] ------- [7:255 -1:255 1 0] [0x1 1 [7 2] 4.000000] (HELLO)
s 1.772456440 _0_ RTR  --- 0 AODV 44 [0 0 0 0] [energy 99.999413 ei 0.001 es 0.000 et 0.000 er 0.000] ------- [0:255 -1:255 1 0] [0x1 1 [0 2] 4.000000] (HELLO)
s 1.816151490 _3_ RTR  --- 0 AODV 44 [0 0 0 0] [energy 99.999348 ei 0.001 es 0.000 et 0.000 er 0.000] ------- [3:255 -1:255 1 0] [0x1 1 [3 2] 4.000000] (HELLO)
s 1.843735463 _2_ RTR  --- 0 AODV 44 [0 0 0 0] [energy 99.999232 ei 0.001 es 0.000 et 0.000 er 0.000] ------- [2:255 -1:255 1 0] [0x1 1 [2 2] 4.000000] (HELLO)
s 1.900759326 _9_ RTR  --- 0 AODV 44 [0 0 0 0] [energy 99.999338 ei 0.001 es 0.000 et 0.000 er 0.000] ------- [9:255 -1:255 1 0] [0x1 1 [9 2] 4.000000] (HELLO)
s 1.917326360 _1_ RTR  --- 0 AODV 44 [0 0 0 0] [energy 99.999399 ei 0.001 es 0.000 et 0.000 er 0.000] ------- [1:255 -1:255 1 0] [0x1 1 [1 2] 4.000000] (HELLO)
s 1.947123378 _5_ RTR  --- 0 AODV 44 [0 0 0 0] [energy 99.999083 ei 0.001 es 0.000 et 0.000 er 0.000] ------- [5:255 -1:255 1 0] [0x1 1 [5 2] 4.000000] (HELLO)
N -t 1.947539 -n 6 -e 99.998506
r 1.948379706 _6_ RTR  --- 0 AODV 44 [0 ffffffff 5 800] [energy 99.998506 ei 0.001 es 0.000 et 0.000 er 0.000] ------- [5:255 -1:255 1 0] [0x1 1 [5 2] 4.000000] (HELLO)
s 2.066418317 _4_ RTR  --- 0 AODV 44 [0 0 0 0] [energy 99.999142 ei 0.001 es 0.000 et 0.000 er 0.000] ------- [4:255 -1:255 1 0] [0x1 1 [4 2] 4.000000] (HELLO)
s 2.070093812 _8_ RTR  --- 0 AODV 44 [0 0 0 0] [energy 99.999275 ei 0.001 es 0.000 et 0.000 er 0.000] ------- [8:255 -1:255 1 0] [0x1 1 [8 2] 4.000000] (HELLO)
s 2.156914188 _6_ RTR  --- 0 AODV 44 [0 0 0 0] [energy 99.998506 ei 0.001 es 0.000 et 0.000 er 0.000] ------- [6:255 -1:255 1 0] [0x1 1 [6 4] 4.000000] (HELLO)
N -t 2.157070 -n 5 -e 99.998332
r 2.157910519 _5_ RTR  --- 0 AODV 44 [0 ffffffff 6 800] [energy 99.998332 ei 0.002 es 0.000 et 0.000 er 0.000] ------- [6:255 -1:255 1 0] [0x1 1 [6 4] 4.000000] (HELLO)
s 2.400000000 _8_ AGT  --- 0 cbr 1000 [0 0 0 0] [energy 99.998450 ei 0.001 es 0.000 et 0.000 er 0.000] ------- [8:0 9:0 32 0] [0] 0 0
r 2.400000000 _8_ RTR  --- 0 cbr 1000 [0 0 0 0] [energy 99.998450 ei 0.001 es 0.000 et 0.000 er 0.000] ------- [8:0 9:0 32 0] [0] 0 0
s 2.400000000 _8_ RTR  --- 0 AODV 48 [0 0 0 0] [energy 99.998450 ei 0.001 es 0.000 et 0.000 er 0.000] ------- [8:255 -1:255 30 0] [0x2 1 1 [9 0] [8 4]] (REQUEST)
s 2.417857143 _8_ AGT  --- 1 cbr 1000 [0 0 0 0] [energy 99.998189 ei 0.002 es 0.000 et 0.000 er 0.000] ------- [8:0 9:0 32 0] [1] 0 0
r 2.417857143 _8_ RTR  --- 1 cbr 1000 [0 0 0 0] [energy 99.998189 ei 0.002 es 0.000 et 0.000 er 0.000] ------- [8:0 9:0 32 0] [1] 0 0
s 2.435714286 _8_ AGT  --- 2 cbr 1000 [0 0 0 0] [energy 99.998189 ei 0.002 es 0.000 et 0.000 er 0.000] ------- [8:0 9:0 32 0] [2] 0 0
r 2.435714286 _8_ RTR  --- 2 cbr 1000 [0 0 0 0] [energy 99.998189 ei 0.002 es 0.000 et 0.000 er 0.000] ------- [8:0 9:0 32 0] [2] 0 0
s 2.453571429 _8_ AGT  --- 3 cbr 1000 [0 0 0 0] [energy 99.998189 ei 0.002 es 0.000 et 0.000 er 0.000] ------- [8:0 9:0 32 0] [3] 0 0
r 2.453571429 _8_ RTR  --- 3 cbr 1000 [0 0 0 0] [energy 99.998189 ei 0.002 es 0.000 et 0.000 er 0.000] ------- [8:0 9:0 32 0] [3] 0 0
s 2.471428571 _8_ AGT  --- 4 cbr 1000 [0 0 0 0] [energy 99.998189 ei 0.002 es 0.000 et 0.000 er 0.000] ------- [8:0 9:0 32 0] [4] 0 0
r 2.471428571 _8_ RTR  --- 4 cbr 1000 [0 0 0 0] [energy 99.998189 ei 0.002 es 0.000 et 0.000 er 0.000] ------- [8:0 9:0 32 0] [4] 0 0
s 2.489285714 _8_ AGT  --- 5 cbr 1000 [0 0 0 0] [energy 99.998189 ei 0.002 es 0.000 et 0.000 er 0.000] ------- [8:0 9:0 32 0] [5] 0 0
r 2.489285714 _8_ RTR  --- 5 cbr 1000 [0 0 0 0] [energy 99.998189 ei 0.002 es 0.000 et 0.000 er 0.000] ------- [8:0 9:0 32 0] [5] 0 0
s 2.507142857 _8_ AGT  --- 6 cbr 1000 [0 0 0 0] [energy 99.998189 ei 0.002 es 0.000 et 0.000 er 0.000] ------- [8:0 9:0 32 0] [6] 0 0
r 2.507142857 _8_ RTR  --- 6 cbr 1000 [0 0 0 0] [energy 99.998189 ei 0.002 es 0.000 et 0.000 er 0.000] ------- [8:0 9:0 32 0] [6] 0 0
s 2.525000000 _8_ AGT  --- 7 cbr 1000 [0 0 0 0] [energy 99.998189 ei 0.002 es 0.000 et 0.000 er 0.000] ------- [8:0 9:0 32 0] [7] 0 0
r 2.525000000 _8_ RTR  --- 7 cbr 1000 [0 0 0 0] [energy 99.998189 ei 0.002 es 0.000 et 0.000 er 0.000] ------- [8:0 9:0 32 0] [7] 0 0
s 2.542857143 _8_ AGT  --- 8 cbr 1000 [0 0 0 0] [energy 99.998189 ei 0.002 es 0.000 et 0.000 er 0.000] ------- [8:0 9:0 32 0] [8] 0 0
r 2.542857143 _8_ RTR  --- 8 cbr 1000 [0 0 0 0] [energy 99.998189 ei 0.002 es 0.000 et 0.000 er 0.000] ------- [8:0 9:0 32 0] [8] 0 0
s 2.560714286 _8_ AGT  --- 9 cbr 1000 [0 0 0 0] [energy 99.998189 ei 0.002 es 0.000 et 0.000 er 0.000] ------- [8:0 9:0 32 0] [9] 0 0
r 2.560714286 _8_ RTR  --- 9 cbr 1000 [0 0 0 0] [energy 99.998189 ei 0.002 es 0.000 et 0.000 er 0.000] ------- [8:0 9:0 32 0] [9] 0 0
s 2.578571429 _8_ AGT  --- 10 cbr 1000 [0 0 0 0] [energy 99.998189 ei 0.002 es 0.000 et 0.000 er 0.000] ------- [8:0 9:0 32 0] [10] 0 0
r 2.578571429 _8_ RTR  --- 10 cbr 1000 [0 0 0 0] [energy 99.998189 ei 0.002 es 0.000 et 0.000 er 0.000] ------- [8:0 9:0 32 0] [10] 0 0
s 2.596428571 _8_ AGT  --- 11 cbr 1000 [0 0 0 0] [energy 99.998189 ei 0.002 es 0.000 et 0.000 er 0.000] ------- [8:0 9:0 32 0] [11] 0 0
r 2.596428571 _8_ RTR  --- 11 cbr 1000 [0 0 0 0] [energy 99.998189 ei 0.002 es 0.000 et 0.000 er 0.000] ------- [8:0 9:0 32 0] [11] 0 0
s 2.614285714 _8_ AGT  --- 12 cbr 1000 [0 0 0 0] [energy 99.998189 ei 0.002 es 0.000 et 0.000 er 0.000] ------- [8:0 9:0 32 0] [12] 0 0
r 2.614285714 _8_ RTR  --- 12 cbr 1000 [0 0 0 0] [energy 99.998189 ei 0.002 es 0.000 et 0.000 er 0.000] ------- [8:0 9:0 32 0] [12] 0 0
s 2.632142857 _8_ AGT  --- 13 cbr 1000 [0 0 0 0] [energy 99.998189 ei 0.002 es 0.000 et 0.000 er 0.000] ------- [8:0 9:0 32 0] [13] 0 0
r 2.632142857 _8_ RTR  --- 13 cbr 1000 [0 0 0 0] [energy 99.998189 ei 0.002 es 0.000 et 0.000 er 0.000] ------- [8:0 9:0 32 0] [13] 0 0
s 2.650000000 _8_ AGT  --- 14 cbr 1000 [0 0 0 0] [energy 99.998189 ei 0.002 es 0.000 et 0.000 er 0.000] ------- [8:0 9:0 32 0] [14] 0 0
r 2.650000000 _8_ RTR  --- 14 cbr 1000 [0 0 0 0] [energy 99.998189 ei 0.002 es 0.000 et 0.000 er 0.000] ------- [8:0 9:0 32 0] [14] 0 0
s 2.667857143 _8_ AGT  --- 15 cbr 1000 [0 0 0 0] [energy 99.998189 ei 0.002 es 0.000 et 0.000 er 0.000] ------- [8:0 9:0 32 0] [15] 0 0
r 2.667857143 _8_ RTR  --- 15 cbr 1000 [0 0 0 0] [energy 99.998189 ei 0.002 es 0.000 et 0.000 er 0.000] ------- [8:0 9:0 32 0] [15] 0 0
s 2.685714286 _8_ AGT  --- 16 cbr 1000 [0 0 0 0] [energy 99.998189 ei 0.002 es 0.000 et 0.000 er 0.000] ------- [8:0 9:0 32 0] [16] 0 0
r 2.685714286 _8_ RTR  --- 16 cbr 1000 [0 0 0 0] [energy 99.998189 ei 0.002 es 0.000 et 0.000 er 0.000] ------- [8:0 9:0 32 0] [16] 0 0
s 2.698804225 _3_ RTR  --- 0 AODV 44 [0 0 0 0] [energy 99.998631 ei 0.001 es 0.000 et 0.000 er 0.000] ------- [3:255 -1:255 1 0] [0x1 1 [3 2] 4.000000] (HELLO)
s 2.703571429 _8_ AGT  --- 17 cbr 1000 [0 0 0 0] [energy 99.998189 ei 0.002 es 0.000 et 0.000 er 0.000] ------- [8:0 9:0 32 0] [17] 0 0
r 2.703571429 _8_ RTR  --- 17 cbr 1000 [0 0 0 0] [energy 99.998189 ei 0.002 es 0.000 et 0.000 er 0.000] ------- [8:0 9:0 32 0] [17] 0 0
s 2.720744308 _9_ RTR  --- 0 AODV 44 [0 0 0 0] [energy 99.998571 ei 0.001 es 0.000 et 0.000 er 0.000] ------- [9:255 -1:255 1 0] [0x1 1 [9 2] 4.000000] (HELLO)
s 2.721428571 _8_ AGT  --- 18 cbr 1000 [0 0 0 0] [energy 99.998189 ei 0.002 es 0.000 et 0.000 er 0.000] ------- [8:0 9:0 32 0] [18] 0 0
r 2.721428571 _8_ RTR  --- 18 cbr 1000 [0 0 0 0] [energy 99.998189 ei 0.002 es 0.000 et 0.000 er 0.000] ------- [8:0 9:0 32 0] [18] 0 0
s 2.726781345 _2_ RTR  --- 0 AODV 44 [0 0 0 0] [energy 99.998611 ei 0.001 es 0.000 et 0.000 er 0.000] ------- [2:255 -1:255 1 0] [0x1 1 [2 2] 4.000000] (HELLO)
s 2.727331249 _7_ RTR  --- 0 AODV 44 [0 0 0 0] [energy 99.998697 ei 0.001 es 0.000 et 0.000 er 0.000] ------- [7:255 -1:255 1 0] [0x1 1 [7 2] 4.000000] (HELLO)
s 2.739285714 _8_ AGT  --- 19 cbr 1000 [0 0 0 0] [energy 99.998189 ei 0.002 es 0.000 et 0.000 er 0.000] ------- [8:0 9:0 32 0] [19] 0 0
r 2.739285714 _8_ RTR  --- 19 cbr 1000 [0 0 0 0] [energy 99.998189 ei 0.002 es 0.000 et 0.000 er 0.000] ------- [8:0 9:0 32 0] [19] 0 0
s 2.756255391 _0_ RTR  --- 0 AODV 44 [0 0 0 0] [energy 99.998662 ei 0.001 es 0.000 et 0.000 er 0.000] ------- [0:255 -1:255 1 0] [0x1 1 [0 2] 4.000000] (HELLO)
s 2.757142857 _8_ AGT  --- 20 cbr 1000 [0 0 0 0] [energy 99.998189 ei 0.002 es 0.000 et 0.000 er 0.000] ------- [8:0 9:0 32 0] [20] 0 0
r 2.757142857 _8_ RTR  --- 20 cbr 1000 [0 0 0 0] [energy 99.998189 ei 0.002 es 0.000 et 0.000 er 0.000] ------- [8:0 9:0 32 0] [20] 0 0
s 2.775000000 _8_ AGT  --- 21 cbr 1000 [0 0 0 0] [energy 99.998189 ei 0.002 es 0.000 et 0.000 er 0.000] ------- [8:0 9:0 32 0] [21] 0 0
r 2.775000000 _8_ RTR  --- 21 cbr 1000 [0 0 0 0] [energy 99.998189 ei 0.002 es 0.000 et 0.000 er 0.000] ------- [8:0 9:0 32 0] [21] 0 0
s 2.788894162 _5_ RTR  --- 0 AODV 44 [0 0 0 0] [energy 99.998332 ei 0.002 es 0.000 et 0.000 er 0.000] ------- [5:255 -1:255 1 0] [0x1 1 [5 4] 4.000000] (HELLO)
N -t 2.789170 -n 6 -e 99.997854
s 2.792857143 _8_ AGT  --- 22 cbr 1000 [0 0 0 0] [energy 99.998189 ei 0.002 es 0.000 et 0.000 er 0.000] ------- [8:0 9:0 32 0] [22] 0 0
r 2.792857143 _8_ RTR  --- 22 cbr 1000 [0 0 0 0] [energy 99.998189 ei 0.002 es 0.000 et 0.000 er 0.000] ------- [8:0 9:0 32 0] [22] 0 0
s 2.810714286 _8_ AGT  --- 23 cbr 1000 [0 0 0 0] [energy 99.998189 ei 0.002 es 0.000 et 0.000 er 0.000] ------- [8:0 9:0 32 0] [23] 0 0
r 2.810714286 _8_ RTR  --- 23 cbr 1000 [0 0 0 0] [energy 99.998189 ei 0.002 es 0.000 et 0.000 er 0.000] ------- [8:0 9:0 32 0] [23] 0 0
s 2.828571429 _8_ AGT  --- 24 cbr 1000 [0 0 0 0] [energy 99.998189 ei 0.002 es 0.000 et 0.000 er 0.000] ------- [8:0 9:0 32 0] [24] 0 0
r 2.828571429 _8_ RTR  --- 24 cbr 1000 [0 0 0 0] [energy 99.998189 ei 0.002 es 0.000 et 0.000 er 0.000] ------- [8:0 9:0 32 0] [24] 0 0
s 2.846428571 _8_ AGT  --- 25 cbr 1000 [0 0 0 0] [energy 99.998189 ei 0.002 es 0.000 et 0.000 er 0.000] ------- [8:0 9:0 32 0] [25] 0 0
r 2.846428571 _8_ RTR  --- 25 cbr 1000 [0 0 0 0] [energy 99.998189 ei 0.002 es 0.000 et 0.000 er 0.000] ------- [8:0 9:0 32 0] [25] 0 0
s 2.864285714 _8_ AGT  --- 26 cbr 1000 [0 0 0 0] [energy 99.998189 ei 0.002 es 0.000 et 0.000 er 0.000] ------- [8:0 9:0 32 0] [26] 0 0
r 2.864285714 _8_ RTR  --- 26 cbr 1000 [0 0 0 0] [energy 99.998189 ei 0.002 es 0.000 et 0.000 er 0.000] ------- [8:0 9:0 32 0] [26] 0 0
s 2.882142857 _8_ AGT  --- 27 cbr 1000 [0 0 0 0] [energy 99.998189 ei 0.002 es 0.000 et 0.000 er 0.000] ------- [8:0 9:0 32 0] [27] 0 0
r 2.882142857 _8_ RTR  --- 27 cbr 1000 [0 0 0 0] [energy 99.998189 ei 0.002 es 0.000 et 0.000 er 0.000] ------- [8:0 9:0 32 0] [27] 0 0
s 2.900000000 _8_ AGT  --- 28 cbr 1000 [0 0 0 0] [energy 99.998189 ei 0.002 es 0.000 et 0.000 er 0.000] ------- [8:0 9:0 32 0] [28] 0 0
r 2.900000000 _8_ RTR  --- 28 cbr 1000 [0 0 0 0] [energy 99.998189 ei 0.002 es 0.000 et 0.000 er 0.000] ------- [8:0 9:0 32 0] [28] 0 0
s 2.917857143 _8_ AGT  --- 29 cbr 1000 [0 0 0 0] [energy 99.998189 ei 0.002 es 0.000 et 0.000 er 0.000] ------- [8:0 9:0 32 0] [29] 0 0
r 2.917857143 _8_ RTR  --- 29 cbr 1000 [0 0 0 0] [energy 99.998189 ei 0.002 es 0.000 et 0.000 er 0.000] ------- [8:0 9:0 32 0] [29] 0 0
s 2.935714286 _8_ AGT  --- 30 cbr 1000 [0 0 0 0] [energy 99.998189 ei 0.002 es 0.000 et 0.000 er 0.000] ------- [8:0 9:0 32 0] [30] 0 0
r 2.935714286 _8_ RTR  --- 30 cbr 1000 [0 0 0 0] [energy 99.998189 ei 0.002 es 0.000 et 0.000 er 0.000] ------- [8:0 9:0 32 0] [30] 0 0
s 2.953571429 _8_ AGT  --- 31 cbr 1000 [0 0 0 0] [energy 99.998189 ei 0.002 es 0.000 et 0.000 er 0.000] ------- [8:0 9:0 32 0] [31] 0 0
r 2.953571429 _8_ RTR  --- 31 cbr 1000 [0 0 0 0] [energy 99.998189 ei 0.002 es 0.000 et 0.000 er 0.000] ------- [8:0 9:0 32 0] [31] 0 0
s 2.954103816 _6_ RTR  --- 0 AODV 44 [0 0 0 0] [energy 99.997854 ei 0.002 es 0.000 et 0.000 er 0.000] ------- [6:255 -1:255 1 0] [0x1 1 [6 4] 4.000000] (HELLO)
N -t 2.954219 -n 5 -e 99.997711
N -t 2.954219 -n 9 -e 99.997768
s 2.971428571 _8_ AGT  --- 32 cbr 1000 [0 0 0 0] [energy 99.998189 ei 0.002 es 0.000 et 0.000 er 0.000] ------- [8:0 9:0 32 0] [32] 0 0
r 2.971428571 _8_ RTR  --- 32 cbr 1000 [0 0 0 0] [energy 99.998189 ei 0.002 es 0.000 et 0.000 er 0.000] ------- [8:0 9:0 32 0] [32] 0 0
s 2.987038688 _1_ RTR  --- 0 AODV 44 [0 0 0 0] [energy 99.998559 ei 0.001 es 0.000 et 0.000 er 0.000] ------- [1:255 -1:255 1 0] [0x1 1 [1 2] 4.000000] (HELLO)
s 2.989285714 _8_ AGT  --- 33 cbr 1000 [0 0 0 0] [energy 99.998189 ei 0.002 es 0.000 et 0.000 er 0.000] ------- [8:0 9:0 32 0] [33] 0 0
r 2.989285714 _8_ RTR  --- 33 cbr 1000 [0 0 0 0] [energy 99.998189 ei 0.002 es 0.000 et 0.000 er 0.000] ------- [8:0 9:0 32 0] [33] 0 0
s 3.007142857 _8_ AGT  --- 34 cbr 1000 [0 0 0 0] [energy 99.998189 ei 0.002 es 0.000 et 0.000 er 0.000] ------- [8:0 9:0 32 0] [34] 0 0
r 3.007142857 _8_ RTR  --- 34 cbr 1000 [0 0 0 0] [energy 99.998189 ei 0.002 es 0.000 et 0.000 er 0.000] ------- [8:0 9:0 32 0] [34] 0 0
s 3.025000000 _8_ AGT  --- 35 cbr 1000 [0 0 0 0] [energy 99.998189 ei 0.002 es 0.000 et 0.000 er 0.000] ------- [8:0 9:0 32 0] [35] 0 0
r 3.025000000 _8_ RTR  --- 35 cbr 1000 [0 0 0 0] [energy 99.998189 ei 0.002 es 0.000 et 0.000 er 0.000] ------- [8:0 9:0 32 0] [35] 0 0
s 3.042857143 _8_ AGT  --- 36 cbr 1000 [0 0 0 0] [energy 99.998189 ei 0.002 es 0.000 et 0.000 er 0.000] ------- [8:0 9:0 32 0] [36] 0 0
r 3.042857143 _8_ RTR  --- 36 cbr 1000 [0 0 0 0] [energy 99.998189 ei 0.002 es 0.000 et 0.000 er 0.000] ------- [8:0 9:0 32 0] [36] 0 0
s 3.060714286 _8_ AGT  --- 37 cbr 1000 [0 0 0 0] [energy 99.998189 ei 0.002 es 0.000 et 0.000 er 0.000] ------- [8:0 9:0 32 0] [37] 0 0
r 3.060714286 _8_ RTR  --- 37 cbr 1000 [0 0 0 0] [energy 99.998189 ei 0.002 es 0.000 et 0.000 er 0.000] ------- [8:0 9:0 32 0] [37] 0 0
s 3.078571429 _8_ AGT  --- 38 cbr 1000 [0 0 0 0] [energy 99.998189 ei 0.002 es 0.000 et 0.000 er 0.000] ------- [8:0 9:0 32 0] [38] 0 0
r 3.078571429 _8_ RTR  --- 38 cbr 1000 [0 0 0 0] [energy 99.998189 ei 0.002 es 0.000 et 0.000 er 0.000] ------- [8:0 9:0 32 0] [38] 0 0
s 3.096428571 _8_ AGT  --- 39 cbr 1000 [0 0 0 0] [energy 99.998189 ei 0.002 es 0.000 et 0.000 er 0.000] ------- [8:0 9:0 32 0] [39] 0 0
r 3.096428571 _8_ RTR  --- 39 cbr 1000 [0 0 0 0] [energy 99.998189 ei 0.002 es 0.000 et 0.000 er 0.000] ------- [8:0 9:0 32 0] [39] 0 0
s 3.114285714 _8_ AGT  --- 40 cbr 1000 [0 0 0 0] [energy 99.998189 ei 0.002 es 0.000 et 0.000 er 0.000] ------- [8:0 9:0 32 0] [40] 0 0
r 3.114285714 _8_ RTR  --- 40 cbr 1000 [0 0 0 0] [energy 99.998189 ei 0.002 es 0.000 et 0.000 er 0.000] ------- [8:0 9:0 32 0] [40] 0 0
s 3.132142857 _8_ AGT  --- 41 cbr 1000 [0 0 0 0] [energy 99.998189 ei 0.002 es 0.000 et 0.000 er 0.000] ------- [8:0 9:0 32 0] [41] 0 0
r 3.132142857 _8_ RTR  --- 41 cbr 1000 [0 0 0 0] [energy 99.998189 ei 0.002 es 0.000 et 0.000 er 0.000] ------- [8:0 9:0 32 0] [41] 0 0
s 3.150000000 _8_ AGT  --- 42 cbr 1000 [0 0 0 0] [energy 99.998189 ei 0.002 es 0.000 et 0.000 er 0.000] ------- [8:0 9:0 32 0] [42] 0 0
r 3.150000000 _8_ RTR  --- 42 cbr 1000 [0 0 0 0] [energy 99.998189 ei 0.002 es 0.000 et 0.000 er 0.000] ------- [8:0 9:0 32 0] [42] 0 0
s 3.167857143 _8_ AGT  --- 43 cbr 1000 [0 0 0 0] [energy 99.998189 ei 0.002 es 0.000 et 0.000 er 0.000] ------- [8:0 9:0 32 0] [43] 0 0
r 3.167857143 _8_ RTR  --- 43 cbr 1000 [0 0 0 0] [energy 99.998189 ei 0.002 es 0.000 et 0.000 er 0.000] ------- [8:0 9:0 32 0] [43] 0 0
s 3.185714286 _8_ AGT  --- 44 cbr 1000 [0 0 0 0] [energy 99.998189 ei 0.002 es 0.000 et 0.000 er 0.000] ------- [8:0 9:0 32 0] [44] 0 0
r 3.185714286 _8_ RTR  --- 44 cbr 1000 [0 0 0 0] [energy 99.998189 ei 0.002 es 0.000 et 0.000 er 0.000] ------- [8:0 9:0 32 0] [44] 0 0
s 3.200098992 _8_ RTR  --- 0 AODV 44 [0 0 0 0] [energy 99.998189 ei 0.002 es 0.000 et 0.000 er 0.000] ------- [8:255 -1:255 1 0] [0x1 1 [8 4] 4.000000] (HELLO)
s 3.203571429 _8_ AGT  --- 45 cbr 1000 [0 0 0 0] [energy 99.997595 ei 0.002 es 0.000 et 0.000 er 0.000] ------- [8:0 9:0 32 0] [45] 0 0
r 3.203571429 _8_ RTR  --- 45 cbr 1000 [0 0 0 0] [energy 99.997595 ei 0.002 es 0.000 et 0.000 er 0.000] ------- [8:0 9:0 32 0] [45] 0 0
s 3.221428571 _8_ AGT  --- 46 cbr 1000 [0 0 0 0] [energy 99.997595 ei 0.002 es 0.000 et 0.000 er 0.000] ------- [8:0 9:0 32 0] [46] 0 0
r 3.221428571 _8_ RTR  --- 46 cbr 1000 [0 0 0 0] [energy 99.997595 ei 0.002 es 0.000 et 0.000 er 0.000] ------- [8:0 9:0 32 0] [46] 0 0
s 3.237698629 _4_ RTR  --- 0 AODV 44 [0 0 0 0] [energy 99.998453 ei 0.001 es 0.000 et 0.000 er 0.000] ------- [4:255 -1:255 1 0] [0x1 1 [4 2] 4.000000] (HELLO)
s 3.239285714 _8_ AGT  --- 47 cbr 1000 [0 0 0 0] [energy 99.997595 ei 0.002 es 0.000 et 0.000 er 0.000] ------- [8:0 9:0 32 0] [47] 0 0
r 3.239285714 _8_ RTR  --- 47 cbr 1000 [0 0 0 0] [energy 99.997595 ei 0.002 es 0.000 et 0.000 er 0.000] ------- [8:0 9:0 32 0] [47] 0 0
s 3.257142857 _8_ AGT  --- 48 cbr 1000 [0 0 0 0] [energy 99.997595 ei 0.002 es 0.000 et 0.000 er 0.000] ------- [8:0 9:0 32 0] [48] 0 0
r 3.257142857 _8_ RTR  --- 48 cbr 1000 [0 0 0 0] [energy 99.997595 ei 0.002 es 0.000 et 0.000 er 0.000] ------- [8:0 9:0 32 0] [48] 0 0
s 3.275000000 _8_ AGT  --- 49 cbr 1000 [0 0 0 0] [energy 99.997595 ei 0.002 es 0.000 et 0.000 er 0.000] ------- [8:0 9:0 32 0] [49] 0 0
r 3.275000000 _8_ RTR  --- 49 cbr 1000 [0 0 0 0] [energy 99.997595 ei 0.002 es 0.000 et 0.000 er 0.000] ------- [8:0 9:0 32 0] [49] 0 0
s 3.292857143 _8_ AGT  --- 50 cbr 1000 [0 0 0 0] [energy 99.997595 ei 0.002 es 0.000 et 0.000 er 0.000] ------- [8:0 9:0 32 0] [50] 0 0
r 3.292857143 _8_ RTR  --- 50 cbr 1000 [0 0 0 0] [energy 99.997595 ei 0.002 es 0.000 et 0.000 er 0.000] ------- [8:0 9:0 32 0] [50] 0 0
s 3.310714286 _8_ AGT  --- 51 cbr 1000 [0 0 0 0] [energy 99.997595 ei 0.002 es 0.000 et 0.000 er 0.000] ------- [8:0 9:0 32 0] [51] 0 0
r 3.310714286 _8_ RTR  --- 51 cbr 1000 [0 0 0 0] [energy 99.997595 ei 0.002 es 0.000 et 0.000 er 0.000] ------- [8:0 9:0 32 0] [51] 0 0
s 3.328571429 _8_ AGT  --- 52 cbr 1000 [0 0 0 0] [energy 99.997595 ei 0.002 es 0.000 et 0.000 er 0.000] ------- [8:0 9:0 32 0] [52] 0 0
r 3.328571429 _8_ RTR  --- 52 cbr 1000 [0 0 0 0] [energy 99.997595 ei 0.002 es 0.000 et 0.000 er 0.000] ------- [8:0 9:0 32 0] [52] 0 0
s 3.346428571 _8_ AGT  --- 53 cbr 1000 [0 0 0 0] [energy 99.997595 ei 0.002 es 0.000 et 0.000 er 0.000] ------- [8:0 9:0 32 0] [53] 0 0
r 3.346428571 _8_ RTR  --- 53 cbr 1000 [0 0 0 0] [energy 99.997595 ei 0.002 es 0.000 et 0.000 er 0.000] ------- [8:0 9:0 32 0] [53] 0 0
s 3.364285714 _8_ AGT  --- 54 cbr 1000 [0 0 0 0] [energy 99.997595 ei 0.002 es 0.000 et 0.000 er 0.000] ------- [8:0 9:0 32 0] [54] 0 0
r 3.364285714 _8_ RTR  --- 54 cbr 1000 [0 0 0 0] [energy 99.997595 ei 0.002 es 0.000 et 0.000 er 0.000] ------- [8:0 9:0 32 0] [54] 0 0
s 3.382142857 _8_ AGT  --- 55 cbr 1000 [0 0 0 0] [energy 99.997595 ei 0.002 es 0.000 et 0.000 er 0.000] ------- [8:0 9:0 32 0] [55] 0 0
r 3.382142857 _8_ RTR  --- 55 cbr 1000 [0 0 0 0] [energy 99.997595 ei 0.002 es 0.000 et 0.000 er 0.000] ------- [8:0 9:0 32 0] [55] 0 0
s 3.400000000 _8_ AGT  --- 56 cbr 1000 [0 0 0 0] [energy 99.997595 ei 0.002 es 0.000 et 0.000 er 0.000] ------- [8:0 9:0 32 0] [56] 0 0
r 3.400000000 _8_ RTR  --- 56 cbr 1000 [0 0 0 0] [energy 99.997595 ei 0.002 es 0.000 et 0.000 er 0.000] ------- [8:0 9:0 32 0] [56] 0 0
s 3.417857143 _8_ AGT  --- 57 cbr 1000 [0 0 0 0] [energy 99.997595 ei 0.002 es 0.000 et 0.000 er 0.000] ------- [8:0 9:0 32 0] [57] 0 0
r 3.417857143 _8_ RTR  --- 57 cbr 1000 [0 0 0 0] [energy 99.997595 ei 0.002 es 0.000 et 0.000 er 0.000] ------- [8:0 9:0 32 0] [57] 0 0
s 3.435714286 _8_ AGT  --- 58 cbr 1000 [0 0 0 0] [energy 99.997595 ei 0.002 es 0.000 et 0.000 er 0.000] ------- [8:0 9:0 32 0] [58] 0 0
r 3.435714286 _8_ RTR  --- 58 cbr 1000 [0 0 0 0] [energy 99.997595 ei 0.002 es 0.000 et 0.000 er 0.000] ------- [8:0 9:0 32 0] [58] 0 0
s 3.453571429 _8_ AGT  --- 59 cbr 1000 [0 0 0 0] [energy 99.997595 ei 0.002 es 0.000 et 0.000 er 0.000] ------- [8:0 9:0 32 0] [59] 0 0
r 3.453571429 _8_ RTR  --- 59 cbr 1000 [0 0 0 0] [energy 99.997595 ei 0.002 es 0.000 et 0.000 er 0.000] ------- [8:0 9:0 32 0] [59] 0 0
s 3.471428571 _8_ AGT  --- 60 cbr 1000 [0 0 0 0] [energy 99.997595 ei 0.002 es 0.000 et 0.000 er 0.000] ------- [8:0 9:0 32 0] [60] 0 0
r 3.471428571 _8_ RTR  --- 60 cbr 1000 [0 0 0 0] [energy 99.997595 ei 0.002 es 0.000 et 0.000 er 0.000] ------- [8:0 9:0 32 0] [60] 0 0
s 3.489285714 _8_ AGT  --- 61 cbr 1000 [0 0 0 0] [energy 99.997595 ei 0.002 es 0.000 et 0.000 er 0.000] ------- [8:0 9:0 32 0] [61] 0 0
r 3.489285714 _8_ RTR  --- 61 cbr 1000 [0 0 0 0] [energy 99.997595 ei 0.002 es 0.000 et 0.000 er 0.000] ------- [8:0 9:0 32 0] [61] 0 0
s 3.495764947 _3_ RTR  --- 0 AODV 44 [0 0 0 0] [energy 99.997978 ei 0.002 es 0.000 et 0.000 er 0.000] ------- [3:255 -1:255 1 0] [0x1 1 [3 2] 4.000000] (HELLO)
s 3.507142857 _8_ AGT  --- 62 cbr 1000 [0 0 0 0] [energy 99.997595 ei 0.002 es 0.000 et 0.000 er 0.000] ------- [8:0 9:0 32 0] [62] 0 0
r 3.507142857 _8_ RTR  --- 62 cbr 1000 [0 0 0 0] [energy 99.997595 ei 0.002 es 0.000 et 0.000 er 0.000] ------- [8:0 9:0 32 0] [62] 0 0
s 3.525000000 _8_ AGT  --- 63 cbr 1000 [0 0 0 0] [energy 99.997595 ei 0.002 es 0.000 et 0.000 er 0.000] ------- [8:0 9:0 32 0] [63] 0 0
r 3.525000000 _8_ RTR  --- 63 cbr 1000 [0 0 0 0] [energy 99.997595 ei 0.002 es 0.000 et 0.000 er 0.000] ------- [8:0 9:0 32 0] [63] 0 0
s 3.542857143 _8_ AGT  --- 64 cbr 1000 [0 0 0 0] [energy 99.997595 ei 0.002 es 0.000 et 0.000 er 0.000] ------- [8:0 9:0 32 0] [64] 0 0
r 3.542857143 _8_ RTR  --- 64 cbr 1000 [0 0 0 0] [energy 99.997595 ei 0.002 es 0.000 et 0.000 er 0.000] ------- [8:0 9:0 32 0] [64] 0 0
D 3.542857143 _8_ RTR  IFQ 0 cbr 1020 [0 0 0 0] [energy 99.997595 ei 0.002 es 0.000 et 0.000 er 0.000] ------- [8:0 9:0 30 0] [0] 0 0
s 3.560714286 _8_ AGT  --- 65 cbr 1000 [0 0 0 0] [energy 99.997595 ei 0.002 es 0.000 et 0.000 er 0.000] ------- [8:0 9:0 32 0] [65] 0 0
r 3.560714286 _8_ RTR  --- 65 cbr 1000 [0 0 0 0] [energy 99.997595 ei 0.002 es 0.000 et 0.000 er 0.000] ------- [8:0 9:0 32 0] [65] 0 0
D 3.560714286 _8_ RTR  IFQ 1 cbr 1020 [0 0 0 0] [energy 99.997595 ei 0.002 es 0.000 et 0.000 er 0.000] ------- [8:0 9:0 30 0] [1] 0 0
s 3.578571429 _8_ AGT  --- 66 cbr 1000 [0 0 0 0] [energy 99.997595 ei 0.002 es 0.000 et 0.000 er 0.000] ------- [8:0 9:0 32 0] [66] 0 0
r 3.578571429 _8_ RTR  --- 66 cbr 1000 [0 0 0 0] [energy 99.997595 ei 0.002 es 0.000 et 0.000 er 0.000] ------- [8:0 9:0 32 0] [66] 0 0
D 3.578571429 _8_ RTR  IFQ 2 cbr 1020 [0 0 0 0] [energy 99.997595 ei 0.002 es 0.000 et 0.000 er 0.000] ------- [8:0 9:0 30 0] [2] 0 0
s 3.589539658 _9_ RTR  --- 0 AODV 44 [0 0 0 0] [energy 99.997768 ei 0.002 es 0.000 et 0.000 er 0.000] ------- [9:255 -1:255 1 0] [0x1 1 [9 2] 4.000000] (HELLO)
N -t 3.589855 -n 6 -e 99.997231
r 3.590695955 _6_ RTR  --- 0 AODV 44 [0 ffffffff 9 800] [energy 99.997231 ei 0.003 es 0.000 et 0.000 er 0.000] ------- [9:255 -1:255 1 0] [0x1 1 [9 2] 4.000000] (HELLO)
s 3.596428571 _8_ AGT  --- 67 cbr 1000 [0 0 0 0] [energy 99.997595 ei 0.002 es 0.000 et 0.000 er 0.000] ------- [8:0 9:0 32 0] [67] 0 0
r 3.596428571 _8_ RTR  --- 67 cbr 1000 [0 0 0 0] [energy 99.997595 ei 0.002 es 0.000 et 0.000 er 0.000] ------- [8:0 9:0 32 0] [67] 0 0
D 3.596428571 _8_ RTR  IFQ 3 cbr 1020 [0 0 0 0] [energy 99.997595 ei 0.002 es 0.000 et 0.000 er 0.000] ------- [8:0 9:0 30 0] [3] 0 0
s 3.614285714 _8_ AGT  --- 68 cbr 1000 [0 0 0 0] [energy 99.997595 ei 0.002 es 0.000 et 0.000 er 0.000] ------- [8:0 9:0 32 0] [68] 0 0
r 3.614285714 _8_ RTR  --- 68 cbr 1000 [0 0 0 0] [energy 99.997595 ei 0.002 es 0.000 et 0.000 er 0.000] ------- [8:0 9:0 32 0] [68] 0 0
D 3.614285714 _8_ RTR  IFQ 4 cbr 1020 [0 0 0 0] [energy 99.997595 ei 0.002 es 0.000 et 0.000 er 0.000] ------- [8:0 9:0 30 0] [4] 0 0
s 3.632142857 _8_ AGT  --- 69 cbr 1000 [0 0 0 0] [energy 99.997595 ei 0.002 es 0.000 et 0.000 er 0.000] ------- [8:0 9:0 32 0] [69] 0 0
r 3.632142857 _8_ RTR  --- 69 cbr 1000 [0 0 0 0] [energy 99.997595 ei 0.002 es 0.000 et 0.000 er 0.000] ------- [8:0 9:0 32 0] [69] 0 0
D 3.632142857 _8_ RTR  IFQ 5 cbr 1020 [0 0 0 0] [energy 99.997595 ei 0.002 es 0.000 et 0.000 er 0.000] ------- [8:0 9:0 30 0] [5] 0 0
s 3.639917706 _2_ RTR  --- 0 AODV 44 [0 0 0 0] [energy 99.997958 ei 0.002 es 0.000 et 0.000 er 0.000] ------- [2:255 -1:255 1 0] [0x1 1 [2 2] 4.000000] (HELLO)
s 3.645266770 _7_ RTR  --- 0 AODV 44 [0 0 0 0] [energy 99.997957 ei 0.002 es 0.000 et 0.000 er 0.000] ------- [7:255 -1:255 1 0] [0x1 1 [7 2] 4.000000] (HELLO)
s 3.650000000 _8_ AGT  --- 70 cbr 1000 [0 0 0 0] [energy 99.997595 ei 0.002 es 0.000 et 0.000 er 0.000] ------- [8:0 9:0 32 0] [70] 0 0
r 3.650000000 _8_ RTR  --- 70 cbr 1000 [0 0 0 0] [energy 99.997595 ei 0.002 es 0.000 et 0.000 er 0.000] ------- [8:0 9:0 32 0] [70] 0 0
D 3.650000000 _8_ RTR  IFQ 6 cbr 1020 [0 0 0 0] [energy 99.997595 ei 0.002 es 0.000 et 0.000 er 0.000] ------- [8:0 9:0 30 0] [6] 0 0
s 3.667857143 _8_ AGT  --- 71 cbr 1000 [0 0 0 0] [energy 99.997595 ei 0.002 es 0.000 et 0.000 er 0.000] ------- [8:0 9:0 32 0] [71] 0 0
r 3.667857143 _8_ RTR  --- 71 cbr 1000 [0 0 0 0] [energy 99.997595 ei 0.002 es 0.000 et 0.000 er 0.000] ------- [8:0 9:0 32 0] [71] 0 0
D 3.667857143 _8_ RTR  IFQ 7 cbr 1020 [0 0 0 0] [energy 99.997595 ei 0.002 es 0.000 et 0.000 er 0.000] ------- [8:0 9:0 30 0] [7] 0 0
s 3.685714286 _8_ AGT  --- 72 cbr 1000 [0 0 0 0] [energy 99.997595 ei 0.002 es 0.000 et 0.000 er 0.000] ------- [8:0 9:0 32 0] [72] 0 0
r 3.685714286 _8_ RTR  --- 72 cbr 1000 [0 0 0 0] [energy 99.997595 ei 0.002 es 0.000 et 0.000 er 0.000] ------- [8:0 9:0 32 0] [72] 0 0
D 3.685714286 _8_ RTR  IFQ 8 cbr 1020 [0 0 0 0] [energy 99.997595 ei 0.002 es 0.000 et 0.000 er 0.000] ------- [8:0 9:0 30 0] [8] 0 0
s 3.703571429 _8_ AGT  --- 73 cbr 1000 [0 0 0 0] [energy 99.997595 ei 0.002 es 0.000 et 0.000 er 0.000] ------- [8:0 9:0 32 0] [73] 0 0
r 3.703571429 _8_ RTR  --- 73 cbr 1000 [0 0 0 0] [energy 99.997595 ei 0.002 es 0.000 et 0.000 er 0.000] ------- [8:0 9:0 32 0] [73] 0 0